399
Lattice="19.59262691714357 -0.0029401591670048664 0.00043227724696582155 -0.0029405439160256983 19.594541571232078 0.002722427805357169 0.0003459403246241731 0.002177382872289726 15.670877927394494" Properties=species:S:1:pos:R:3:energies:R:1:forces:R:3 energy=12.102255896817931 free_energy=12.102255896817931 stress="0.0008449320096325353 -1.741475594328488e-05 -1.7831505502808068e-06 -1.741475594328488e-05 0.00032647182205680566 -0.0001772897661335237 -1.7831505502808068e-06 -0.0001772897661335237 0.0006560994598207807" pbc="T T T"
Au      -0.03135384       0.04161129       0.06727037      -1.25016450      -0.00058746      -0.00001393      -0.00091245
Cu      -0.08871307       1.89577512       1.90101947       2.72951141       0.00018167       0.00121607      -0.00124067
Cu       2.01576881      -0.04645513       1.93999054       3.26299515       0.00254677      -0.00061108       0.00271693
Al       1.95040385       1.93805221       0.12153904      -3.33312425      -0.00015902       0.00041312       0.00111059
Al      -0.05314606      -0.03117124       3.87524147      -2.45772705      -0.00356868      -0.00167464      -0.00076631
Al      -0.03427660       1.94453339       5.82279898      -1.84126778      -0.00044516      -0.00095235      -0.00050819
Al       1.98011856      -0.01561899       5.83863511      -1.98251293       0.00063875       0.00009885       0.00544281
Al       1.90634992       1.88681091       3.77440279      -2.82648896      -0.00036277       0.00177976      -0.00166605
Al      -0.03360158      -0.03453078       7.75909307      -2.44739616       0.00042056       0.00024182      -0.00151109
Au       0.06948310       1.91275519       9.72913943      -0.12614124       0.00147312       0.00096544       0.00021022
Cu       1.88599568      -0.12578791       9.87032452       2.14265079      -0.00341384       0.00161397      -0.00108171
Au       2.11528974       1.76289634       7.90008654      -0.55739941       0.00070019      -0.00651478      -0.00224595
Cu       0.03530823      -0.12335031      11.75689737       2.00864639      -0.00060406      -0.00116199      -0.00076305
Cu       0.00036338       1.89063283      13.79182398       2.57442631      -0.00221658       0.00132942       0.00136067
Au       1.87009182      -0.04542264      13.69467521      -0.27539894       0.00096876      -0.00091982      -0.00343038
Au       1.89548718       1.87303496      11.72383657      -0.89921333      -0.00041036      -0.00056482      -0.00050014
Cu       0.01347083       3.84746748       0.09673075       2.22306239       0.00058467      -0.00085122       0.00174011
Cu      -0.08882950       5.78576845       1.86700996       2.74441964      -0.00254114       0.00046511       0.00007625
Cu       1.87193563       3.85134842       1.93190619       2.87306595      -0.00100128      -0.00047344      -0.00028764
Au       1.92779740       5.78810085       0.07676545      -0.34804285       0.00017846       0.00116355       0.00171813
Al      -0.04436673       3.84986486       3.81918093      -2.51239442      -0.00046925       0.00067268      -0.00056904
Au       0.01769867       5.73506603       5.92917202       0.18028985       0.00117793       0.00268750       0.00110505
Au       2.04160256       3.73898768       5.83436770       0.25831949      -0.00158075       0.00022911      -0.00408257
Al       1.90898314       5.75559354       3.83773626      -2.30209215      -0.00062030      -0.00056715       0.00036737
Cu       0.20142076       3.81451380       7.83280022       3.25272215      -0.00211458       0.00149823       0.00058129
Au       0.06951389       5.82037870       9.70204809       0.61760678      -0.00080037       0.00005871      -0.00007665
Cu       1.98522374       3.81430362       9.79723938       2.81642113      -0.00038247      -0.00119928       0.00029241
Al       1.99417688       5.86008488       7.82461651      -3.21449805      -0.00133287       0.00127215      -0.00159669
Au       0.02191584       3.90501570      11.76505425       0.31875391      -0.00014431       0.00145757       0.00044370
Au      -0.03758039       5.85282306      13.84022537       0.39717114       0.00032769       0.00041962       0.00118899
Au       1.90812462       3.84375358      13.79593419       0.18848082      -0.00282485      -0.00033107       0.00016323
Al       1.97969664       5.87092405      11.81804898      -2.75232122      -0.00094670       0.00084366      -0.00032184
Al       0.00589831       7.82750660       0.06796618      -2.94955016      -0.00188920      -0.00101503      -0.00014140
Au       0.04323147       9.78771726       2.06528395      -0.06384163      -0.00100296       0.00031924       0.00026444
Al       1.93764873       7.82989681       1.95405622      -2.39843372      -0.00129741       0.00050848      -0.00003747
Cu       1.97499355       9.84648728       0.02011709       3.01528487      -0.00058972       0.00091315       0.00016982
Al       0.06104107       7.75475408       3.96629027      -2.59017615      -0.00244259       0.00116657       0.00010803
Al       0.05817531       9.74955375       5.93033610      -2.70994393       0.00018550       0.00031003       0.00180655
Cu       1.96180008       7.80117081       5.93275445       3.15058503      -0.00183996       0.00258010       0.00071893
Cu       1.92759249       9.90218337       3.93995594       3.07758125      -0.00013312      -0.00003534      -0.00066342
Cu       0.00716600       7.72597200       7.76411055       3.57010852      -0.00083754       0.00024554      -0.00022550
Al       0.01657186       9.80037495       9.70797904      -2.23202729      -0.00077685       0.00080656       0.00014078
Al       2.01878165       7.90382400       9.78626724      -2.21048233       0.00061796       0.00009359      -0.00049060
Al       1.99816924       9.78928348       7.89399087      -2.12418234       0.00077746      -0.00037303       0.00223434
Al       0.09040093       7.85550811      11.73736823      -2.15150038      -0.00061208      -0.00229226       0.00054171
Au       0.17210218       9.79846540      13.68675248       0.01263022      -0.00097234      -0.00083984      -0.00048108
Cu       1.96233875       7.81705544      13.78709584       3.06951956       0.00028777      -0.00028905       0.00115538
Cu       2.02072412       9.93229583      11.72425869       2.93863378      -0.00036018       0.00065583       0.00096566
Al       0.09954497      11.85725952      -0.02612128      -3.02811602      -0.00079639       0.00103076       0.00059677
Cu       0.08104234      13.78727402       2.03176637       2.85701611      -0.00178869       0.00019298      -0.00000389
Au       1.88530818      11.80722719       1.99976356      -1.08040598       0.00000006      -0.00028114       0.00002359
Cu       1.98856691      13.83753781      -0.06201419       2.20501364       0.00118478       0.00032318       0.00098949
Cu       0.01839091      11.80700007       3.98786141       2.75785336      -0.00158266       0.00060492      -0.00057957
Au       0.03554683      13.83826008       6.09638024      -1.58000474      -0.00164608       0.00071417      -0.00224982
Au       1.86335400      11.80966135       5.94891761       0.06749529      -0.00012418      -0.00164921      -0.00048992
Au       1.85630356      13.81534633       3.97113793      -0.39163834      -0.00008878      -0.00088237      -0.00100053
Cu       0.04002754      11.89719178       7.89061522       3.26917056      -0.00036591       0.00045418       0.00001855
Au      -0.04222430      13.80517677       9.68230909      -2.02508092      -0.00051490      -0.00241578       0.00128253
Au       2.02518043      11.87237764       9.81684625      -1.43512648      -0.00182222       0.00004771       0.00132784
Cu       1.93913950      13.83078525       7.92246947       2.68055022       0.00017848      -0.00127666       0.00059841
Au       0.01334765      11.80838105      11.65566824      -0.46035122       0.00073578       0.00044203      -0.00042485
Au       0.03445203      13.82743840      13.58974028      -0.68651231       0.00051527      -0.00029623       0.00070402
Au       2.01961977      11.89992552      13.60042921      -1.27892141       0.00088871      -0.00055395       0.00184760
Cu       2.03572318      13.79120878      11.71874834       1.97764034       0.00050891      -0.00143857      -0.00099863
Au       0.05786263      15.60030765       0.00012780      -0.52981380      -0.00062675       0.00065457      -0.00037030
Al      -0.01829229      17.67890787       1.99250921      -2.49869206       0.00171415      -0.00098454      -0.00041108
Cu       1.90014317      15.65423285       1.92247948       2.71791160      -0.00055290       0.00027255       0.00065464
Au       1.95943851      17.56107405       0.06271846      -1.25224553       0.00241996      -0.00069567      -0.00084176
Au       0.01271804      15.79779684       3.98325707      -0.29148917      -0.00055450      -0.00162828      -0.00125548
Cu      -0.04898675      17.60583734       5.90354207       2.83268021       0.00046630      -0.00157464      -0.00006406
Cu       1.87790972      15.80564384       6.01840907       2.54674552      -0.00138416       0.00031743      -0.00005159
Al       1.97297338      17.65381661       3.92001096      -2.64762899      -0.00008516      -0.00188852      -0.00012496
Cu       0.07095856      15.78449728       7.91296974       2.16961851       0.00004751      -0.00179638       0.00017302
Cu       0.02636935      17.61203661       9.82313425       2.14843049       0.00244246      -0.00036513      -0.00035715
Au       1.94700291      15.72827807       9.84265619      -2.51368331       0.00324711       0.00162875      -0.00101187
Au       1.96399915      17.71184260       7.87319299      -1.45463626       0.00239214       0.00177951      -0.00173127
Al      -0.06657607      15.70599812      11.67115233      -4.11787921       0.00056772      -0.00039192       0.00053010
Au      -0.01515567      17.57147555      13.65788912      -1.37920317       0.00142086      -0.00105859       0.00029395
Cu       1.98119765      15.64989525      13.66390555       1.87273259       0.00041627       0.00028606       0.00067706
Cu       1.90816885      17.60862419      11.72439096       2.02296354       0.00202887       0.00188479       0.00363248
Au       3.86452611      -0.05215513       0.08806138       0.08936102      -0.00033958       0.00181463      -0.00150669
Cu       3.90875044       1.94550393       2.04950823       2.61570985      -0.00107539      -0.00052516       0.00510708
Al       5.82202066      -0.03523240       1.98450793      -3.47525903       0.00206400       0.00115103       0.00174932
Al       5.79648077       1.95520363       0.03720700      -2.32001442      -0.00081121      -0.00296055       0.00023349
Au       3.93114443      -0.03597027       3.86303559      -1.45684167       0.00046464      -0.00148067      -0.00417186
Cu       3.95572893       1.86804004       5.76613836       2.66959009      -0.00113777       0.00498984      -0.00235924
Cu       5.82156443      -0.00445428       5.71505009       1.84047195       0.00451045      -0.00207581       0.00209242
Cu       5.81554669       1.89295345       3.91555750       1.77120517      -0.00028342      -0.00028250      -0.00062003
Cu       3.83993801       1.95785574       9.87356221       2.86601307      -0.00052157       0.00385172      -0.00088778
Al       5.73638071       0.01193114       9.82112641      -2.72348285       0.00225591      -0.00118845      -0.00731087
Au       5.75459203       1.76951318       7.73549996      -0.25857043       0.00088449      -0.00182053       0.00065095
Al       3.86696316      -0.06470399      11.71286625      -3.25123447      -0.00351554       0.00151464       0.00663335
Al       3.91605836       1.91454386      13.72596605      -2.31512853      -0.00062953       0.00027834      -0.00167728
Au       5.81673947      -0.09503959      13.66359234       0.28676478       0.00018398      -0.00090975      -0.00223156
Cu       5.85079658       1.95867745      11.78990819       3.12020142       0.00075401       0.00151582       0.00139548
Al       3.93432505       3.86491899       0.07610445      -2.55697417       0.00035004       0.00074825      -0.00123272
Al       3.90724064       5.78318670       2.01912745      -2.28146132       0.00004045       0.00191983      -0.00158317
Cu       5.78973023       3.75943136       2.10550801       2.96712783       0.00104931      -0.00096254      -0.00036652
Au       5.79043236       5.90664560      -0.04810491      -0.22615264       0.00046046      -0.00062873       0.00001736
Cu       3.88632613       3.73152326       3.85805829       2.40991459      -0.00253581       0.00052493       0.00109373
Au       3.83011493       5.88726699       5.82484238       0.53561393      -0.00168665       0.00083993       0.00008419
Al       5.76733137       3.84918015       5.82279978      -3.03794180       0.00040896       0.00115983      -0.00068505
Al       5.81056302       5.87479485       3.90527166      -2.37744442      -0.00236588       0.00155560      -0.00183498
Au       3.89270998       3.80233473       7.87781463       0.18210318       0.00390836      -0.00008686       0.00238630
Au       3.87588921       5.86118952       9.80375099       1.00265329      -0.00099264       0.00003946      -0.00135368
Al       5.86510716       3.80070973       9.79850765      -2.38133019      -0.00294399      -0.00116043      -0.00207288
Al       5.83372312       5.87371001       7.84073960      -2.05089995       0.00078577       0.00099685       0.00141561
Au       3.91160375       3.85118618      11.78694641      -0.36017698      -0.00009129      -0.00235770       0.00028755
Cu       3.87128847       5.89173576      13.77210307       2.76871807      -0.00046210      -0.00062149       0.00139642
Cu       5.80111721       3.95869737      13.68883877       3.29385321       0.00053959       0.00064306       0.00016071
Al       5.79956682       5.90659761      11.79012474      -2.60618795       0.00072933       0.00063791       0.00174208
Au       3.83282804       7.87911858      -0.05804166      -0.78701332       0.00053951       0.00051023      -0.00056401
Cu       3.81122431       9.86464399       1.91921906       2.79657965       0.00032932       0.00043352      -0.00061497
Au       5.80223984       7.90396853       1.96676811       0.54088385      -0.00076308      -0.00046042      -0.00159390
Au       5.81946926       9.82939801      -0.01439887      -0.32574809       0.00021455      -0.00035244       0.00024439
Au       3.75420067       7.96391111       3.92603867       0.48631856      -0.00078961       0.00192972      -0.00062847
Al       3.83812174       9.83818557       5.93753724      -2.31575508       0.00131061       0.00034688      -0.00047184
Au       5.81100625       7.86990747       5.87963915       0.91239929       0.00099630       0.00172881       0.00092248
Al       5.86442801       9.82827639       3.91383746      -2.71453516      -0.00029880       0.00088226      -0.00104603
Cu       3.90588314       7.82113657       7.81549322       3.45689702       0.00034704       0.00115576       0.00086576
Cu       3.90555589       9.91737369       9.98296015       2.42616493      -0.00044607       0.00076033       0.00198026
Au       5.72026687       7.98824291       9.82289153      -0.03455977      -0.00025313       0.00046821       0.00045269
Al       5.77209127       9.87691326       7.90794349      -2.53663444      -0.00031297       0.00024500       0.00082486
Au       3.86315151       7.92144438      11.88240706      -0.66873671      -0.00030840      -0.00044373       0.00162951
Al       3.86552876       9.88691054      13.67803266      -3.71839407      -0.00029355      -0.00021518       0.00025676
Cu       5.84595182       7.88216293      13.73812323       2.71619573       0.00111595      -0.00009026      -0.00061224
Cu       5.79822939       9.87731799      11.74904709       2.19698360      -0.00049424      -0.00157691      -0.00023364
Au       3.80057426      11.84593904       0.01507427      -0.61307426      -0.00047430      -0.00021919      -0.00047969
Al       3.85071588      13.84938952       1.98975270      -3.26493743      -0.00173352      -0.00046993      -0.00144758
Au       5.84326192      11.77642466       1.96577132       0.49692462       0.00050345      -0.00008531      -0.00006694
Au       5.77100278      13.83880076       0.00720435      -0.28746344       0.00154223      -0.00088379       0.00025985
Au       3.84482342      11.75596751       3.92669409       0.35724771       0.00019352       0.00057796      -0.00123946
Al       3.83052409      13.78685674       5.91239920      -2.22303678       0.00023148      -0.00213219      -0.00081862
Au       5.93503208      11.83329752       5.86171021       0.75593792       0.00077859       0.00007568       0.00165909
Au       5.91525387      13.75638999       3.90923891       0.70929871       0.00046592      -0.00073052      -0.00168764
Al       3.90719427      11.85025546       7.91222742      -2.24405533       0.00021181       0.00059881       0.00004163
Cu       3.83948263      13.83060998       9.85709571       2.19975713       0.00080999      -0.00179038       0.00074353
Cu       5.75311798      11.75364997       9.94240491       2.36625973       0.00060400      -0.00027834      -0.00003987
Al       5.80368622      13.75328897       7.94800905      -2.41088748       0.00043568      -0.00126448       0.00081683
Cu       3.89440272      11.88417916      11.69372316       1.82785282       0.00009068       0.00058397       0.00057388
Cu       3.80039454      13.82508826      13.67072566       1.89980944      -0.00052491      -0.00098269       0.00023335
Au       5.76776134      11.91923895      13.65105676      -0.57207723       0.00038693      -0.00157176       0.00034479
Au       5.70874304      13.82584601      11.67595290      -1.70212111       0.00109846      -0.00033119      -0.00027661
Cu       3.79310674      15.67730695       0.00450154       2.12554775      -0.00122375      -0.00040190      -0.00130779
Cu       3.86927055      17.54110140       1.93450173       2.45467346      -0.00116511      -0.00016244       0.00114789
Cu       5.83406366      15.77137200       1.98518512       2.89608765       0.00045017       0.00059149       0.00150263
Au       5.78304560      17.51205620       0.04976545      -0.55937836      -0.00020599       0.00047966      -0.00006383
Al       3.86206836      15.77103152       3.95066796      -2.69784426       0.00078710      -0.00024606       0.00033930
Cu       3.92467285      17.69996218       5.89384422       2.83514148      -0.00026481      -0.00092667       0.00139744
Al       5.81234614      15.71751142       5.84871459      -2.32814201       0.00000665      -0.00193877      -0.00311771
Cu       5.79123165      17.68225481       3.89034850       2.61071572       0.00077747      -0.00077565       0.00039296
Au       3.84632598      15.72504079       7.87429631      -0.97606618       0.00162185       0.00267496       0.00153060
Cu       3.83066606      17.56496539       9.86995336       2.11721912      -0.00168989      -0.00311878      -0.00084571
Cu       5.69144677      15.77554769       9.85246939       2.23021267      -0.00018106       0.00156169      -0.00047020
Au       5.69889823      17.74464479       7.82508430      -0.28089443      -0.00178401       0.00289370       0.00233357
Cu       3.80148548      15.70309960      11.70897613       1.54955110       0.00043493       0.00128411       0.00026783
Au       3.81351474      17.51681637      13.64063851      -1.15090046      -0.00143839       0.00001011      -0.00386702
Al       5.78335279      15.63423614      13.66850530      -3.81685970      -0.00058349       0.00141534      -0.00042408
Cu       5.78138115      17.51633504      11.73038922       2.49109937      -0.00159702      -0.00147005       0.00107879
Au       7.83356963      -0.03706801       0.00263118       0.16122020      -0.00149353       0.00033717       0.00133819
Au       7.77364344       1.88916725       1.98115802      -0.44242378      -0.00078633      -0.00125020      -0.00034717
Cu       9.77497618       0.04677942       1.94064262       2.32888548      -0.00093094       0.00181446       0.00042254
Cu       9.79201687       1.85736476       0.05356563       2.58216178       0.00020951       0.00029366      -0.00024136
Cu       7.76290101       0.02731080       3.90385388       2.23198180      -0.00014160      -0.00079110      -0.00055629
Cu       7.72552438       1.86177191       5.77731401       2.48733844       0.00058945       0.00124875      -0.00049591
Al       9.77629519      -0.04607738       5.82033045      -2.56574209       0.00035122       0.00190293      -0.00037166
Au       9.76227128       1.87370726       3.85361947      -0.65155282      -0.00067038       0.00016465      -0.00158939
Al       7.80053869      -0.03890495       7.84168411      -2.28054229      -0.00284745      -0.00011018       0.00118053
Cu       7.79966836       1.92582674       9.78387332       3.43904546      -0.00068379       0.00101821       0.00013401
Al       9.78848432      -0.04281421       9.82277241      -1.75143110       0.00211837      -0.00145928      -0.00021443
Au       9.76395633       1.92518278       7.79728843       0.81115405      -0.00120948       0.00101480       0.00169751
Au       7.76347533       0.04469141      11.70953363      -0.00135839       0.00325057       0.00021357       0.00353257
Au       7.74663540       1.99291497      13.73007981       0.02421711      -0.00020992      -0.00078489       0.00051747
Au       9.84445499       0.04191482      13.75025642       0.11715747      -0.00070032       0.00013362      -0.00179099
Au       9.82798832       2.02690422      11.76110982       0.75476362       0.00024121      -0.00021041       0.00079758
Al       7.72772773       3.92501958       0.06842858      -2.37733143      -0.00130693       0.00136527       0.00017380
Al       7.75290897       5.92896874       1.98236737      -2.52528679      -0.00078958      -0.00044029      -0.00228096
Al       9.76033825       3.90428620       1.91133195      -2.24969309       0.00120222       0.00007873      -0.00129880
Au       9.75716588       6.07330232       0.06584444       0.64822109       0.00140398       0.00068311      -0.00076226
Au       7.73398905       3.83894168       3.92188991       0.01041566      -0.00075228       0.00088906      -0.00136928
Au       7.83339233       5.95667961       5.86285406       0.34856195       0.00065519       0.00162829      -0.00009610
Au       9.78401756       3.89982725       5.81410184      -0.27291687       0.00115882      -0.00022745      -0.00113412
Au       9.78299181       5.95808922       3.90730966      -0.49767360      -0.00136206      -0.00020048      -0.00001034
Au       7.75679094       3.78265183       7.76493874       0.68207228       0.00133213       0.00132545       0.00126114
Al       7.79599416       5.88455353       9.76636735      -1.29016794       0.00116874       0.00242916       0.00165757
Al       9.79486992       3.92040272       9.74667191      -2.23105723      -0.00029921       0.00133481      -0.00190729
Au       9.86585320       5.93926171       7.74380011       0.64468172      -0.00110370      -0.00068309       0.00027400
Al       7.76305495       3.90911052      11.74463009      -2.34002363       0.00099884       0.00055577       0.00084106
Au       7.76609064       5.93912828      13.73507285       0.18530127       0.00045139       0.00023243       0.00147401
Au       9.78701399       3.91668707      13.83759796       0.52304479       0.00047299       0.00254498       0.00139723
Au       9.81732694       5.83212308      11.77084392       1.36065569       0.00096542       0.00031181      -0.00022699
Cu       7.72119661       7.87777512      -0.02183122       2.97362514       0.00007469       0.00014308      -0.00128073
Al       7.84332470       9.82818279       1.99692316      -3.22480507       0.00091098       0.00012640       0.00053446
Cu       9.78596240       7.88096731       1.99780487       2.93892663       0.00175529      -0.00111925       0.00033625
Au       9.73082348       9.75522901       0.04482907      -0.82976562       0.00091773      -0.00160684      -0.00103465
Cu       7.88190037       7.86079226       3.96220785       3.08947611       0.00020974      -0.00064111      -0.00078829
Au       7.84970015       9.77559559       5.85064027       0.39899363       0.00122509      -0.00067607       0.00112056
Cu       9.83350836       7.83942062       5.80549920       2.98793703       0.00020813      -0.00035448       0.00106653
Au       9.79196285       9.77735283       3.91936789      -0.86959637       0.00029707       0.00047480       0.00063323
Al       7.81148807       7.92590211       7.91856841      -1.88380843      -0.00103029       0.00004508       0.00174556
Cu       7.72451750       9.92419501       9.91238090       3.04123885      -0.00029421      -0.00117350      -0.00025412
Al       9.85943641       7.88138187       9.80653262      -1.76841099      -0.00090277      -0.00158383       0.00029822
Al       9.84569779       9.75485310       7.84834805      -2.21201768       0.00103088      -0.00229813       0.00033625
Au       7.74101330       7.94047325      11.70938002       0.14294169       0.00061049      -0.00117143       0.00041514
Au       7.74393457       9.83741953      13.69142205      -0.55548061       0.00040387      -0.00169357      -0.00113295
Al       9.78831228       7.88442962      13.68226241      -2.63185128       0.00106977      -0.00074566      -0.00082309
Au       9.82011618       9.90501821      11.72569935       0.53289100       0.00043361      -0.00062647      -0.00076171
Au       7.86660722      11.86422663      -0.05147370      -0.82201750       0.00084709      -0.00028053      -0.00109967
Al       7.86729278      13.72223752       1.96201261      -2.87987078      -0.00074676      -0.00073741      -0.00013733
Cu       9.82880262      11.78238120       1.99512730       2.66477398       0.00144553      -0.00058628      -0.00020865
Cu       9.76362050      13.68754535      -0.06197609       2.61232124       0.00108605      -0.00121776      -0.00037717
Cu       7.87131933      11.81645117       3.95265458       3.05998844       0.00092025       0.00148132      -0.00025434
Cu       7.85095350      13.68607413       5.89662726       3.30492285       0.00050790      -0.00030342      -0.00007252
Al       9.79999439      11.74806140       5.92242469      -2.71940255      -0.00202827       0.00145447       0.00025635
Au       9.81543557      13.66477824       3.91802446      -0.02074001       0.00080876       0.00053527      -0.00163434
Au       7.77215559      11.76939140       7.94899800       0.49670037      -0.00063772      -0.00027743       0.00020973
Al       7.74784420      13.81207365       9.84371716      -2.31708563      -0.00026952      -0.00097000      -0.00014027
Au       9.85901335      11.80442629       9.76494022       0.50950282      -0.00023372      -0.00026517       0.00034036
Au       9.80467442      13.80584328       7.83001936       0.48165352       0.00023998      -0.00009268      -0.00084989
Al       7.78387210      11.85967485      11.77602448      -3.07284672       0.00073871      -0.00002363      -0.00012303
Cu       7.83780604      13.77384950      13.74877837       2.52441787       0.00135009      -0.00020810      -0.00029903
Cu       9.76178079      11.74424977      13.78488127       3.05284449       0.00088227      -0.00101027      -0.00028824
Al       9.76925117      13.74236974      11.80906025      -2.03991233       0.00031238      -0.00092337       0.00145991
Au       7.86889502      15.63324840       0.01096919      -0.20275579      -0.00044643      -0.00100032       0.00107580
Au       7.81631310      17.67278481       2.07708804      -0.54144367      -0.00144812       0.00158961      -0.00210251
Al       9.84466572      15.67536867       2.00518407      -2.23576277       0.00139758      -0.00082369      -0.00083745
Al       9.78713136      17.63691178       0.01985473      -2.52168456       0.00033309      -0.00124468       0.00044291
Al       7.83022711      15.69273284       3.92633691      -2.35324027      -0.00002598      -0.00004532       0.00003695
Au       7.72261822      17.73709400       5.73647521       0.09409144      -0.00198961       0.00121459      -0.00100490
Al       9.79683273      15.73871482       5.79563649      -2.15117390       0.00015822      -0.00125168      -0.00024769
Cu       9.79352042      17.76929550       3.81570953       3.10297262       0.00015178       0.00059033       0.00075206
Au       7.71380583      15.72168113       7.78659859       1.04713653       0.00253766      -0.00177315       0.00167553
Au       7.68745703      17.51263208       9.90023365       0.22945556      -0.00093664      -0.00049948      -0.00044829
Al       9.80741584      15.64190465       9.84530265      -1.93757497      -0.00050100      -0.00079954       0.00120495
Al       9.77934371      17.56942503       7.83210752      -1.53549029      -0.00041871      -0.00165549       0.00187958
Cu       7.72065378      15.63649247      11.81565905       2.93739323       0.00163753      -0.00071473      -0.00062891
Au       7.79723983      17.55266770      13.62538369      -0.23140931       0.00096993       0.00215010       0.00070231
Cu       9.67750256      15.61892491      13.74234964       3.06902096      -0.00038401      -0.00072618       0.00057827
Al       9.83697038      17.55525917      11.80727072      -2.05386608       0.00009833       0.00117644       0.00150162
Cu      11.71746089       0.12084870       0.03483291       2.52531266       0.00132650      -0.00000484       0.00018157
Cu      11.77307916       1.90285956       1.91282923       2.32241541       0.00135498       0.00003451       0.00120698