399
Lattice="19.59262691714357 -0.0029401591670048664 0.00043227724696582155 -0.0029405439160256983 19.594541571232078 0.002722427805357169 0.0003459403246241731 0.002177382872289726 15.670877927394494" Properties=species:S:1:pos:R:3:energies:R:1:forces:R:3 energy=11.977381193547053 free_energy=11.977381193547053 stress="0.0004016522658630548 4.906566481332681e-05 -0.0002693502500875926 4.906566481332681e-05 0.00014754967356567114 -5.970638212117876e-05 -0.0002693502500875926 -5.970638212117876e-05 0.0009198016081895679" pbc="T T T"
Au      -0.02268759       0.03932208       0.06128363      -1.22955220       0.00080885      -0.00065469       0.00121714
Cu      -0.08545857       1.89824281       1.89390861       2.72266717       0.00147388       0.00134585      -0.00009171
Cu       2.03326439      -0.04580759       1.95046327       3.20680449      -0.00051995       0.00046508       0.00099273
Al       1.95655113       1.93465081       0.11726977      -3.31517397      -0.00041619       0.00097194      -0.00111002
Al      -0.07097308      -0.01873102       3.86008894      -2.47309156       0.00073071      -0.00192819      -0.00199790
Al      -0.08055167       1.97529020       5.80119597      -1.87996513      -0.00044516      -0.00144796      -0.00182762
Al       1.90583126      -0.00740487       5.82966968      -2.19059678       0.00006967       0.00294295       0.00100620
Al       1.90299589       1.88976381       3.78774408      -2.80417690      -0.00049854       0.00014629       0.00028574
Al      -0.07587771      -0.02057661       7.75755460      -2.47679273      -0.00183426      -0.00174611      -0.00141394
Au      -0.00036264       1.92798351       9.76107401      -0.01844240       0.00022927      -0.00012469      -0.00055035
Cu       1.87267853      -0.11077958       9.80956550       2.18810897      -0.00064567       0.00043806      -0.00076941
Au       1.95079982       1.90211093       7.87524064      -0.58923488       0.00056929       0.00008258       0.00138825
Cu       0.02661971      -0.12001019      11.74790557       2.00522805       0.00157613       0.00008299       0.00131556
Cu       0.00142545       1.88821595      13.78505686       2.56329329      -0.00008244      -0.00209289      -0.00088901
Au       1.87480602      -0.04042999      13.67373293      -0.28430374      -0.00087378      -0.00037084       0.00089286
Au       1.89400952       1.87068906      11.69365324      -0.87447894       0.00118243       0.00002784      -0.00035049
Cu       0.02460435       3.84535051       0.09443279       2.23579364      -0.00130337       0.00047362      -0.00029680
Cu      -0.09132560       5.79323105       1.85858016       2.76124641      -0.00041425      -0.00056679      -0.00057195
Cu       1.88075031       3.84590705       1.93500304       2.86812290      -0.00053574       0.00059572      -0.00054431
Au       1.93297264       5.78422491       0.07766513      -0.35633654       0.00019110       0.00106217       0.00054025
Al      -0.05229356       3.86463701       3.80031059      -2.51679044      -0.00085672      -0.00034969       0.00143798
Au       0.00534396       5.76384816       5.91377964       0.14249550      -0.00080122       0.00072575       0.00026851
Au       2.02476951       3.77861327       5.80826159       0.33319915       0.00046017       0.00241536       0.00157111
Al       1.90826827       5.77275496       3.82352266      -2.29354233       0.00009657       0.00013840       0.00051694
Cu       0.11087303       3.86963807       7.82123143       3.30758551      -0.00037323       0.00228725       0.00229976
Au       0.05665319       5.82925251       9.71440809       0.58455939      -0.00168528       0.00108067       0.00115008
Cu       1.95927493       3.83298555       9.79943974       2.85449929       0.00095390       0.00088808       0.00175685
Al       1.98114235       5.85768939       7.82326730      -3.21490579       0.00074438      -0.00028016       0.00008436
Au       0.00843887       3.90492302      11.77876726       0.30326717       0.00041606       0.00088351       0.00098194
Au      -0.03276211       5.85361899      13.84765098       0.38541370      -0.00130711       0.00037687       0.00090742
Au       1.91574174       3.83771268      13.78652717       0.18567480       0.00014467       0.00048369       0.00069183
Al       1.98194023       5.86653023      11.81882638      -2.75663785      -0.00102172      -0.00090446       0.00127667
Al       0.00273820       7.83471087       0.07378650      -2.94744024      -0.00091744      -0.00060140      -0.00065649
Au       0.03225394       9.80462175       2.06450834      -0.06489165       0.00051040      -0.00128422      -0.00164894
Al       1.93742536       7.84100624       1.94759599      -2.40336898      -0.00012000       0.00005262       0.00118080
Cu       1.97556728       9.85320935       0.02028742       3.01563848      -0.00049535      -0.00125211      -0.00087816
Al       0.05026440       7.77055782       3.95081853      -2.58859330      -0.00005156      -0.00074686       0.00004380
Al       0.05154776       9.74941826       5.92350607      -2.71274122       0.00188019      -0.00097066       0.00119159
Cu       1.95665365       7.80643497       5.92780572       3.14520152      -0.00038796      -0.00033725       0.00116668
Cu       1.92689323       9.90386373       3.93464899       3.07852216      -0.00030407      -0.00053933       0.00082795
Cu       0.00141522       7.73017403       7.76787938       3.56759818      -0.00083422      -0.00018173      -0.00012368
Al       0.01667656       9.79779062       9.71768083      -2.23395090      -0.00160558       0.00090700       0.00015029
Al       2.01677328       7.90239259       9.78897845      -2.20683439      -0.00073695      -0.00125874       0.00083628
Al       1.99240060       9.78769869       7.89467653      -2.12750079       0.00038980      -0.00064562      -0.00011661
Al       0.09188027       7.85673746      11.74943627      -2.15994561      -0.00327717      -0.00111986      -0.00029619
Au       0.16723480       9.80116447      13.69906929       0.01847507      -0.00101980      -0.00023428      -0.00015707
Cu       1.96204010       7.81838183      13.79016050       3.06753864      -0.00042505      -0.00063952      -0.00046068
Cu       2.02074102       9.92964563      11.73252247       2.94009330      -0.00105937      -0.00133536       0.00038907
Al       0.08718538      11.86644119      -0.01747764      -3.03002354       0.00054339       0.00141444       0.00063294
Cu       0.08306191      13.78221559       2.03059644       2.86823617       0.00176497       0.00180784      -0.00231514
Au       1.89041554      11.80807379       1.99506530      -1.08928319      -0.00003115      -0.00078843       0.00016450
Cu       1.99346485      13.83794527      -0.06264670       2.21098344      -0.00089597       0.00161944      -0.00095223
Cu       0.01643889      11.80764951       3.98046390       2.75796082       0.00042613      -0.00094696      -0.00226092
Au       0.02777244      13.81308940       6.08059924      -1.61472217      -0.00580115       0.00441216      -0.00224119
Au       1.86437803      11.80199748       5.94617969       0.07837890       0.00356824      -0.00447635      -0.00009776
Au       1.86103848      13.81155289       3.96627904      -0.41096539       0.00072175       0.00142827      -0.00273764
Cu       0.03804417      11.89320953       7.89420965       3.24164788      -0.00111359      -0.00201006       0.00197090
Au      -0.04367118      13.78980740       9.70757955      -2.03129338      -0.00001388       0.00099072       0.00063710
Au       2.02316760      11.86629677       9.82368878      -1.43526893      -0.00156296      -0.00099604       0.00085412
Cu       1.92383594      13.82188914       7.92310593       2.65288704       0.00370824      -0.00063628       0.00201274
Au       0.01236216      11.80034327      11.67126611      -0.45299913      -0.00190218      -0.00003818       0.00148208
Au       0.03037193      13.82588101      13.59782534      -0.67743883       0.00032273       0.00092547       0.00101778
Au       2.01912571      11.89944359      13.60864473      -1.28442250      -0.00016029      -0.00161244       0.00044673
Cu       2.03619856      13.78768471      11.72538017       1.97923665       0.00023542      -0.00011319       0.00033742
Au       0.06434390      15.59905801      -0.00288796      -0.53311598       0.00047560       0.00244186      -0.00044248
Al      -0.00836425      17.68076987       1.98752154      -2.50088019       0.00107857       0.00352525      -0.00204739
Cu       1.90278329      15.65755580       1.92131316       2.71394077       0.00365527       0.00225075      -0.00039147
Au       1.96590546      17.56537788       0.05501331      -1.24164339      -0.00028845       0.00173232      -0.00059610
Au       0.00962958      15.79153590       3.96988826      -0.31938695       0.00119545      -0.00298442       0.00102461
Cu      -0.08931341      17.60503965       5.87984785       2.88815074       0.00220710      -0.00088333      -0.00100352
Cu       1.85212933      15.77109643       6.00061448       2.62028735       0.00126235       0.00143450       0.00035260
Al       1.96774352      17.65440944       3.93022659      -2.63624565       0.00176394       0.00172542       0.00103385
Cu       0.02033763      15.72845693       7.91798772       2.23723021       0.00078494       0.00049247       0.00124915
Cu      -0.00153747      17.60069873       9.83345285       2.16496835      -0.00088319       0.00033229      -0.00113891
Au       1.93562238      15.71598634       9.84954787      -2.46572367       0.00142108      -0.00102262      -0.00083275
Au       1.84875509      17.64512525       7.84739579      -1.57761669       0.00037094       0.00021871       0.00028940
Al      -0.07186541      15.70494528      11.68331792      -4.10849375       0.00070453      -0.00124155       0.00071576
Au      -0.00999592      17.57552261      13.65560162      -1.35771011       0.00238628       0.00125511       0.00152116
Cu       1.98453748      15.65277874      13.65759025       1.86845595      -0.00084470       0.00012919       0.00102195
Cu       1.90567623      17.62360429      11.69958559       2.01536865       0.00055613       0.00173533      -0.00125756
Au       3.86581653      -0.05088644       0.07661679       0.11466279       0.00111556      -0.00033146      -0.00245357
Cu       3.90673763       1.93413566       2.06555232       2.58368018       0.00031554       0.00130957      -0.00105269
Al       5.80184533      -0.03638436       2.00267766      -3.47405425       0.00034575       0.00261949      -0.00298892
Al       5.79341254       1.94530863       0.03377382      -2.29862653       0.00037601       0.00144764      -0.00121640
Au       3.92870380      -0.03323668       3.91770265      -1.42272875      -0.00077302       0.00322989       0.00084933
Cu       3.94462687       1.85772510       5.84230226       2.67121354      -0.00029915       0.00158515       0.00172263
Cu       5.81033121      -0.01704261       5.79146405       1.87821115       0.00023608       0.00010506      -0.00008064
Cu       5.81136286       1.88138010       3.95686716       1.75560054      -0.00013588       0.00160641      -0.00107022
Au       3.86091745      -0.03999355       7.87059223      -0.97774752       0.00022509       0.00106453       0.00185049
Cu       3.82657999       1.92748297       9.79914759       2.86086820       0.00037302       0.00172771       0.00050033
Al       5.83638790      -0.00054509       9.84474728      -2.96398861      -0.00078172       0.00212454      -0.00053022
Au       5.87636364       1.84262441       7.76036899      -0.29335732      -0.00076558       0.00014964       0.00026221
Al       3.87225834      -0.06165392      11.65492121      -3.29707770       0.00009025       0.00248931      -0.00019524
Al       3.91876077       1.90598034      13.70552039      -2.30813167       0.00059502       0.00221944      -0.00082815
Au       5.81870310      -0.09924103      13.63855586       0.26576027      -0.00126063       0.00117311       0.00093794
Cu       5.86981667       1.95505251      11.77921820       3.12158121      -0.00190897       0.00208268      -0.00143766
Al       3.93856436       3.85632303       0.07503653      -2.53824732      -0.00031699       0.00106716      -0.00139561
Al       3.91249406       5.78033477       2.01766498      -2.26576684      -0.00069003      -0.00030140      -0.00117737
Cu       5.78456663       3.74144715       2.11979418       2.94850383       0.00069389       0.00149230      -0.00097402
Au       5.78900212       5.90501680      -0.05228424      -0.20998606      -0.00085148      -0.00069217      -0.00037763
Cu       3.89072720       3.72355776       3.87442741       2.40097305       0.00048646       0.00163172       0.00031486
Au       3.83160464       5.90037895       5.82749501       0.52467852       0.00026120       0.00016687       0.00151778
Al       5.78114083       3.86700295       5.82548782      -3.01010780       0.00062775       0.00059673       0.00081697
Al       5.81174227       5.88061170       3.90430378      -2.35740815       0.00054163       0.00039209      -0.00023589
Au       3.89553393       3.80511894       7.86982981       0.12418762      -0.00053385       0.00014863       0.00050504
Au       3.87431711       5.86140235       9.79761741       0.99946279      -0.00109325      -0.00068945       0.00014903
Al       5.87504487       3.81127258       9.80299418      -2.35752101      -0.00025100       0.00001345       0.00032163
Al       5.84047978       5.88126516       7.84279976      -2.05047105       0.00001149       0.00025283       0.00028198
Au       3.91076018       3.82983016      11.75879029      -0.29852121      -0.00008824       0.00127043       0.00025605
Cu       3.87009018       5.88505428      13.76944281       2.76208441       0.00013135      -0.00149586      -0.00015958
Cu       5.79712010       3.95303332      13.67923436       3.26692680      -0.00072872       0.00012592      -0.00110090
Al       5.79599184       5.90422796      11.79108275      -2.60580050      -0.00033767      -0.00102245      -0.00087673
Au       3.83400245       7.87778424      -0.06107519      -0.78153678      -0.00085851      -0.00166283       0.00105197
Cu       3.81476683       9.86593925       1.91537007       2.80882758       0.00063286      -0.00108838       0.00108008
Au       5.80247385       7.90568512       1.96430912       0.54070041       0.00058963      -0.00191185       0.00025002
Au       5.82018794       9.82814110      -0.01663419      -0.33063752       0.00179775      -0.00034724      -0.00017229
Au       3.75579472       7.96975669       3.92330441       0.48498384      -0.00015211      -0.00067018      -0.00010258
Al       3.84008014       9.83822848       5.94048761      -2.31350792      -0.00115099      -0.00040502      -0.00039653
Au       5.81635916       7.87800494       5.88020214       0.92433935       0.00073678      -0.00054788      -0.00012908
Al       5.86634922       9.83022392       3.91367647      -2.71999642       0.00091032      -0.00141181      -0.00116819
Cu       3.90561596       7.82475906       7.81806232       3.44630921      -0.00044648      -0.00171175      -0.00069434
Cu       3.90466695       9.91682630       9.98477005       2.42457971      -0.00044159      -0.00102498       0.00017605
Au       5.72151298       7.99070132       9.82346916      -0.03548170      -0.00031822      -0.00140964       0.00030886
Al       5.77924096       9.88350195       7.90993613      -2.53393403      -0.00023367      -0.00145560       0.00210714
Au       3.86306494       7.92009376      11.88263364      -0.66435276       0.00042964      -0.00096431       0.00119454
Al       3.86735042       9.88667946      13.67796588      -3.72224301       0.00041619       0.00017917       0.00086195
Cu       5.84685413       7.88187565      13.73628177       2.72198086       0.00043686      -0.00084647      -0.00050356
Cu       5.79940038       9.87924392      11.74789210       2.19657816       0.00046184      -0.00163660       0.00105104
Au       3.80546064      11.84842259       0.01372331      -0.61577534       0.00106349      -0.00008270      -0.00053457
Al       3.85308506      13.85639760       1.98934834      -3.26439019       0.00023895      -0.00216258      -0.00134586
Au       5.84329017      11.77516042       1.96193094       0.49213884       0.00016505      -0.00214894      -0.00109623
Au       5.76917761      13.84373714       0.00463097      -0.28420853      -0.00040612      -0.00222133       0.00079831
Au       3.84697187      11.75357459       3.92464129       0.35353891       0.00041553      -0.00067378       0.00169291
Al       3.83028194      13.78051508       5.91429089      -2.21693321       0.00100850      -0.00190609       0.00042514
Au       5.93450577      11.83424311       5.86483133       0.75381366      -0.00197656      -0.00197019      -0.00122915
Au       5.91465276      13.75158187       3.90291465       0.71710771       0.00286245       0.00007159       0.00097065
Al       3.90426117      11.85025607       7.91583669      -2.24406192      -0.00097911      -0.00146897       0.00002853
Cu       3.83467813      13.82690105       9.85763402       2.20143161       0.00007872      -0.00056001       0.00098004
Cu       5.75568505      11.75497415       9.94230971       2.36420739      -0.00013036      -0.00141700       0.00014195
Al       5.80523921      13.75564831       7.95458404      -2.41098378       0.00093405      -0.00123595       0.00071824
Cu       3.89468340      11.88253734      11.69634686       1.82787520      -0.00047588      -0.00066774      -0.00071220
Cu       3.80118795      13.82619261      13.66707217       1.90044928       0.00113639      -0.00043418       0.00072392
Au       5.76925911      11.91992196      13.65049326      -0.57518482       0.00127442      -0.00138744       0.00087385
Au       5.70887215      13.82365713      11.67420774      -1.71241927       0.00083988       0.00003189       0.00041219
Cu       3.79287178      15.68322157      -0.00141704       2.12701537       0.00057786       0.00033783      -0.00034378
Cu       3.86587602      17.54822109       1.94243070       2.42717467      -0.00025402       0.00209749      -0.00055363
Cu       5.83137727      15.78272984       1.98987374       2.88660440      -0.00076696      -0.00186434      -0.00141267
Au       5.77635684      17.51828245       0.04552592      -0.55509956      -0.00017181       0.00365268      -0.00212751
Al       3.86425445      15.77740201       3.96195803      -2.68349362       0.00067568      -0.00155571       0.00068729
Cu       3.91869440      17.69032015       5.93450637       2.89988282       0.00036892       0.00052949       0.00099022
Al       5.83054321      15.68979968       5.84810369      -2.31795994      -0.00102579      -0.00068987      -0.00017767
Cu       5.78934401      17.68973118       3.92015455       2.60761664       0.00008741      -0.00014824      -0.00066641
Au       3.82696383      15.71838690       7.87100649      -1.01178635      -0.00061911      -0.00011835       0.00100345
Cu       3.82421536      17.57998916       9.81597229       2.19585109      -0.00010273      -0.00011761      -0.00031779
Cu       5.69526610      15.76263476       9.85942723       2.23566560       0.00077477      -0.00131718       0.00011592
Au       5.80874656      17.63362813       7.85007828      -0.26941433       0.00012750       0.00096360       0.00055261
Cu       3.80103582      15.71287312      11.69429446       1.55697398      -0.00008023      -0.00020086      -0.00126231
Au       3.81103526      17.52753549      13.61953405      -1.13665014      -0.00021570       0.00378930       0.00115876
Al       5.77716356      15.64014894      13.66215687      -3.81451689       0.00017698       0.00065414      -0.00001107
Cu       5.79182680      17.51075980      11.71605079       2.48638242      -0.00158955       0.00155432       0.00096324
Au       7.82300969      -0.03912000       0.00190733       0.16589376      -0.00164637       0.00152629       0.00012793
Au       7.76311413       1.87795185       1.99133235      -0.44104853       0.00072126      -0.00007101       0.00004734
Cu       9.77128826       0.04413292       1.94338801       2.32859129      -0.00085623       0.00126692      -0.00206027
Cu       9.78549803       1.85516940       0.05806688       2.57683998      -0.00009417       0.00121888       0.00128811
Cu       7.75101835       0.02950194       3.92533595       2.22904870      -0.00060153      -0.00076272       0.00057763
Cu       7.75874936       1.87048112       5.78152154       2.50275315      -0.00041499       0.00046455      -0.00126250
Al       9.79958720      -0.05754109       5.81703630      -2.56207562       0.00007483      -0.00077746       0.00189659
Au       9.76391610       1.87065149       3.85264033      -0.66721981      -0.00135522      -0.00073992      -0.00062367
Al       7.83613093      -0.06242840       7.84535996      -2.28747280      -0.00176680       0.00187527      -0.00017468
Cu       7.84612746       1.94132645       9.79344249       3.44760698      -0.00057427       0.00068504      -0.00112016
Al       9.81350779      -0.05578211       9.81839179      -1.74292746       0.00056422       0.00052645      -0.00033944
Au       9.77567705       1.92550847       7.79485048       0.77221966       0.00086555      -0.00131498      -0.00072431
Au       7.80900298       0.03877639      11.72158618       0.06134696       0.00083322      -0.00043613      -0.00090960
Au       7.75066927       1.99166267      13.73083037       0.01988963      -0.00071201       0.00129269       0.00020025
Au       9.85292895       0.03918728      13.75951401       0.10314167       0.00011075      -0.00126795      -0.00007110
Au       9.84745223       2.02915062      11.76684778       0.72743488      -0.00005883      -0.00094012       0.00192787
Al       7.71900255       3.91984168       0.07295824      -2.36333823       0.00074723       0.00066128      -0.00100718
Al       7.75087992       5.93009344       1.98127838      -2.50591803      -0.00028818       0.00027071      -0.00063083
Al       9.75529850       3.90028244       1.90996105      -2.25214678       0.00030926       0.00070388      -0.00030026
Au       9.75632808       6.07820464       0.07053179       0.65046210       0.00020898      -0.00017293      -0.00073988
Au       7.73611218       3.83867514       3.92080585       0.01582882       0.00061076       0.00099730       0.00055433
Au       7.84291752       5.97314560       5.85264322       0.33560666       0.00043890       0.00078114       0.00064557
Au       9.79785455       3.90657222       5.80463795      -0.28919180       0.00123120       0.00056745      -0.00109312
Au       9.78619602       5.96178856       3.89903130      -0.48857705       0.00032217      -0.00094083      -0.00009427
Au       7.81386874       3.84275118       7.77596823       0.73539400       0.00066140       0.00100410      -0.00061937
Al       7.80664238       5.89810392       9.77832945      -1.29976584      -0.00059523       0.00033918      -0.00085855
Al       9.82223237       3.92842553       9.75798020      -2.25451004       0.00061286       0.00123347      -0.00220807
Au       9.87787412       5.95234332       7.74006904       0.63469803       0.00137190       0.00183832      -0.00078381
Al       7.77603115       3.91358293      11.74926092      -2.34513505      -0.00085610      -0.00023176      -0.00144811
Au       7.76678345       5.93952339      13.73680528       0.18880331       0.00095102      -0.00183387      -0.00147122
Au       9.78764275       3.91931889      13.84461999       0.53030123       0.00082062      -0.00002565       0.00002734
Au       9.82554898       5.83841004      11.77745265       1.36742077       0.00062655      -0.00012404      -0.00089755
Cu       7.72082845       7.87915022      -0.02211811       2.97910193       0.00106439      -0.00086605      -0.00073643
Al       7.84603843       9.82851096       1.99753062      -3.24187951       0.00019786      -0.00065357      -0.00102619
Cu       9.79687407       7.89030104       2.00086955       2.93119440       0.00108748      -0.00104263      -0.00009682
Au       9.73544898       9.75400774       0.04809049      -0.84981981      -0.00224795       0.00054815       0.00048656
Cu       7.89194010       7.87294244       3.95535483       3.07863459       0.00002379      -0.00091593       0.00050852
Au       7.85927149       9.78341423       5.84582617       0.37786776      -0.00092964      -0.00098441       0.00272216
Cu       9.83941785       7.85102806       5.79727658       2.98795543       0.00130503      -0.00168893       0.00090526
Au       9.80908482       9.79839752       3.91437137      -0.87117866       0.00046932      -0.00186380       0.00007070
Al       7.81711947       7.93283808       7.91781682      -1.88294463       0.00069683      -0.00190931       0.00216513
Cu       7.72937150       9.93037492       9.91015142       3.03306796      -0.00147583      -0.00168900       0.00014849
Al       9.86490937       7.88737378       9.80734487      -1.76846009       0.00008923       0.00123883      -0.00029288
Al       9.85248831       9.76264197       7.84629061      -2.21486798      -0.00004567      -0.00224357      -0.00090099
Au       7.74120032       7.94445205      11.71086266       0.14393849       0.00197210      -0.00206250       0.00004850
Au       7.74554367       9.83793897      13.69171580      -0.55471851       0.00154932      -0.00052315      -0.00025076
Al       9.78826270       7.88762535      13.68479326      -2.63094357       0.00223765      -0.00042555       0.00003424
Au       9.82099528       9.90891898      11.72466588       0.52983992       0.00148765      -0.00054667      -0.00094868
Au       7.86688163      11.86089484      -0.05163135      -0.82537829       0.00046588       0.00017990      -0.00039853
Al       7.86418981      13.71941728       1.95477393      -2.88142877      -0.00064932       0.00048247      -0.00025193
Cu       9.82869916      11.77357205       1.99179892       2.68079208      -0.00127469      -0.00121445       0.00022154
Cu       9.76080108      13.68796424      -0.06465225       2.58966930      -0.00066789       0.00146640       0.00127735
Cu       7.86724596      11.81127165       3.94836377       3.07755296      -0.00060298      -0.00050495       0.00010380
Cu       7.86431993      13.66543763       5.88312864       3.32225678      -0.00159974       0.00219086       0.00172193
Al       9.82653959      11.74589818       5.90460330      -2.72033965      -0.00298573       0.00009147      -0.00145984
Au       9.80750926      13.65124767       3.90776964      -0.06566879      -0.00258983       0.00025614       0.00156998
Au       7.78630092      11.77743436       7.94043336       0.49185782      -0.00037716      -0.00206776       0.00001717
Al       7.76591168      13.80428195       9.84554088      -2.30894690       0.00022282      -0.00143130      -0.00036632
Au       9.86711909      11.80994930       9.76406193       0.51008454       0.00018749       0.00059949      -0.00129858
Au       9.86334168      13.78242153       7.79404813       0.43417474      -0.00479026       0.00231245       0.00255341
Al       7.78638384      11.86131418      11.77773452      -3.07206695      -0.00090696      -0.00212657       0.00139379
Cu       7.83720874      13.77272457      13.75545642       2.52037793      -0.00010670      -0.00036819      -0.00012276
Cu       9.76200020      11.74194216      13.78605765       3.06660574       0.00061643      -0.00127733      -0.00072747
Al       9.77747783      13.73606022      11.82123875      -2.04270954      -0.00142028       0.00138894       0.00007876
Au       7.85872940      15.64012830       0.01097268      -0.19041943      -0.00025719      -0.00051888      -0.00086054
Au       7.80364196      17.68429024       2.08712210      -0.54214673      -0.00019005       0.00054075       0.00087957
Al       9.82167410      15.68293444       1.99328103      -2.25739433      -0.00129650       0.00170230       0.00055886
Al       9.78252421      17.64026810       0.02717401      -2.52836477       0.00001730      -0.00015159      -0.00016379
Al       7.83465849      15.68600962       3.92162833      -2.34944206      -0.00231971      -0.00001132      -0.00036643
Au       7.74987890      17.72180312       5.72810787       0.09510070      -0.00000255       0.00129676       0.00033456
Al       9.82270431      15.71634675       5.78042674      -2.19352254      -0.00451398       0.00246238      -0.00211924
Cu       9.80058115      17.76414106       3.81198761       3.09733837      -0.00236028      -0.00103437      -0.00110467
Au       7.78401685      15.66324977       7.77404809       1.07158915       0.00006416      -0.00002609      -0.00064611
Au       7.74400565      17.46645965       9.92253603       0.24633358      -0.00121000       0.00180409       0.00093839
Al       9.84777644      15.60799364       9.83698794      -1.94661827      -0.00084189       0.00153159      -0.00065638
Al       9.80842836      17.54794602       7.82063745      -1.54055781      -0.00339674      -0.00090967      -0.00097325
Cu       7.73603112      15.61505372      11.83199373       2.94906207      -0.00013243       0.00117070      -0.00127538
Au       7.80198996      17.54940240      13.62283109      -0.23110078       0.00108489       0.00050884      -0.00081622
Cu       9.68254560      15.61615674      13.75596073       3.06710400      -0.00047667      -0.00008093      -0.00142794
Al       9.86262801      17.53719659      11.81511574      -2.05566153       0.00012492      -0.00002222      -0.00057335
Cu      11.71357693       0.12196303       0.04493870       2.53634905      -0.00082265      -0.00086978      -0.00049385