399
Lattice="19.59262691714357 -0.0029401591670048664 0.00043227724696582155 -0.0029405439160256983 19.594541571232078 0.002722427805357169 0.0003459403246241731 0.002177382872289726 15.670877927394494" Properties=species:S:1:pos:R:3:energies:R:1:forces:R:3 energy=11.812393525644113 free_energy=11.812393525644113 stress="-4.6640726954254586e-05 -3.422887962492933e-05 3.4425059835100474e-05 -3.422887962492933e-05 -0.0005386275731559177 7.797213237100837e-06 3.4425059835100474e-05 7.797213237100837e-06 0.00026880767374244755" pbc="T T T"
Au      -0.01750598       0.04286332       0.06390232      -1.22846465      -0.00086221       0.00051536       0.00105733
Cu      -0.08327332       1.90097492       1.89491502       2.72718137      -0.00144522       0.00003789       0.00030549
Cu       2.03357054      -0.04498741       1.95170328       3.21183277      -0.00002566       0.00096319      -0.00142826
Al       1.95805496       1.93710537       0.11629801      -3.31827042      -0.00006485      -0.00092990       0.00066874
Al      -0.07177059      -0.02065749       3.85686846      -2.46968476      -0.00078155       0.00019832       0.00063150
Al      -0.08080686       1.97749140       5.79910295      -1.88232341       0.00067887      -0.00023048      -0.00036794
Al       1.90200611      -0.00633095       5.82830597      -2.18700004       0.00008755      -0.00001291       0.00113437
Al       1.90337892       1.88998973       3.78685126      -2.80863338      -0.00163497       0.00221075       0.00049811
Al      -0.08009232      -0.01893181       7.75473024      -2.47856831       0.00115367      -0.00093962       0.00022995
Au      -0.00077298       1.93462672       9.76005221      -0.02121573       0.00135858      -0.00047574       0.00040093
Cu       1.87088442      -0.10755961       9.80770574       2.18524793       0.00072662      -0.00021501      -0.00015487
Au       1.94842831       1.90215009       7.87518367      -0.58792198      -0.00035074       0.00018314       0.00010167
Cu       0.03227772      -0.11819222      11.74546069       2.01423983      -0.00039470      -0.00013067       0.00076426
Cu       0.00407647       1.89203749      13.78824130       2.57220622       0.00117162      -0.00040531      -0.00099060
Au       1.87655952      -0.03696241      13.67394153      -0.28052160       0.00065173       0.00161133      -0.00066695
Au       1.89004863       1.87535581      11.69427313      -0.88174392      -0.00103245       0.00137337       0.00036490
Cu       0.02313424       3.84617124       0.09113601       2.23321916      -0.00020127       0.00012882       0.00061979
Cu      -0.08879005       5.78992630       1.85557246       2.75496594      -0.00009939      -0.00038742       0.00091594
Cu       1.87930149       3.84636545       1.93254558       2.87130204      -0.00108942      -0.00004506       0.00088271
Au       1.93181482       5.78171386       0.07052550      -0.35844780      -0.00331694      -0.00084963      -0.00117268
Al      -0.05162868       3.86452502       3.80090477      -2.51545359      -0.00194175       0.00216294       0.00018621
Au       0.00593589       5.75853416       5.91585425       0.13767366       0.00114432       0.00097740      -0.00135568
Au       2.02565822       3.77606696       5.80869197       0.33620301      -0.00214530      -0.00048167       0.00009637
Al       1.91229196       5.76605107       3.82458421      -2.29431741      -0.00020116       0.00106631      -0.00145998
Cu       0.11329171       3.87292939       7.82485667       3.32448540       0.00062383       0.00035612      -0.00090373
Au       0.05659510       5.83312575       9.71507107       0.59503345       0.00059160       0.00117825      -0.00145846
Cu       1.95928025       3.83475765       9.80154010       2.86044394      -0.00117581      -0.00055656      -0.00062578
Al       1.98273667       5.85315527       7.82377665      -3.22657962      -0.00047736       0.00152959       0.00139505
Au       0.00121608       3.91603023      11.77764709       0.31710697       0.00081703      -0.00047602       0.00014466
Au      -0.03948528       5.85707902      13.83683300       0.39627103       0.00035312       0.00016124       0.00035659
Au       1.91311848       3.83891685      13.78319897       0.18024011      -0.00215320       0.00174385      -0.00074074
Al       1.98329290       5.86611165      11.81738947      -2.76386439       0.00052509      -0.00079554       0.00056228
Al       0.00466148       7.82635924       0.05933545      -2.95709306       0.00053963      -0.00195018      -0.00074906
Au       0.04503751       9.78690155       2.05638682      -0.06063610       0.00060267       0.00179796      -0.00069052
Al       1.94032726       7.82944963       1.94363749      -2.40220562       0.00027620       0.00056666       0.00093261
Cu       1.97843631       9.84552664       0.01489846       3.01841384      -0.00097535       0.00013349       0.00081402
Al       0.06140819       7.75967036       3.95416820      -2.59105794       0.00011158       0.00328284      -0.00074118
Al       0.06554282       9.75121271       5.91856965      -2.71388319       0.00024553      -0.00032148      -0.00214010
Cu       1.96301007       7.80225206       5.92968635       3.15065525      -0.00133465       0.00350687      -0.00148561
Cu       1.92990796       9.90251219       3.93207968       3.08378973      -0.00121498      -0.00053133       0.00105945
Cu       0.01446309       7.73148341       7.75856834       3.58737917       0.00057558      -0.00144583       0.00134797
Al       0.03087630       9.80988660       9.70503497      -2.23845602      -0.00143739      -0.00023085       0.00016000
Al       2.02052240       7.90277162       9.78285464      -2.21714721       0.00063325       0.00108849      -0.00103202
Al       2.00235135       9.79102536       7.89026868      -2.12704054       0.00048224       0.00072413      -0.00210361
Al       0.10260312       7.86002532      11.73749974      -2.12667792      -0.00115625      -0.00066473       0.00120401
Au       0.17116744       9.79465012      13.68573049       0.01873928      -0.00053589       0.00012095      -0.00032066
Cu       1.96544587       7.81421605      13.78591368       3.08019977      -0.00046369       0.00026874       0.00056847
Cu       2.02582120       9.93176642      11.72612464       2.94559830      -0.00123267      -0.00050127      -0.00039699
Al       0.10092121      11.85417621      -0.02970705      -3.02918732      -0.00099811       0.00072013      -0.00124563
Cu       0.08341098      13.78756212       2.02210556       2.85748654      -0.00037810       0.00045529       0.00124358
Au       1.88694893      11.80687254       1.99454975      -1.08544220       0.00106177       0.00025222       0.00077219
Cu       1.99073609      13.84071666      -0.06282149       2.20562548       0.00029726      -0.00124532      -0.00022623
Cu       0.01874139      11.80679089       3.97868903       2.75951221      -0.00027659       0.00049390      -0.00084366
Au       0.02561305      13.82163177       6.07374943      -1.61153560       0.00213823      -0.00003424      -0.00023010
Au       1.86763268      11.80764345       5.94294886       0.07494620       0.00154736       0.00086604      -0.00236767
Au       1.85987676      13.81388881       3.96178162      -0.40872250       0.00071204       0.00082677      -0.00112996
Cu       0.04371264      11.90199066       7.88517176       3.25828944      -0.00158960       0.00038443       0.00212263
Au      -0.04155204      13.79526833       9.69989734      -2.02213173      -0.00053333       0.00150580      -0.00171266
Au       2.02939422      11.87239387       9.81716887      -1.43130849       0.00098520       0.00037666      -0.00031347
Cu       1.92652207      13.82651170       7.91696329       2.65358390       0.00072102      -0.00033346      -0.00145947
Au       0.01966932      11.80530943      11.66277495      -0.45339310       0.00130298       0.00108129       0.00122078
Au       0.04015823      13.82683198      13.59310798      -0.68078963       0.00024861      -0.00419655      -0.00130263
Au       2.02445171      11.89691498      13.60353783      -1.27891830      -0.00281532       0.00118714      -0.00036331
Cu       2.04231336      13.78977994      11.72279115       1.98017686      -0.00001583      -0.00103863       0.00021243
Au       0.06410758      15.60665773      -0.00475570      -0.53279261      -0.00056231       0.00180652       0.00101250
Al      -0.00940992      17.68134169       1.98815161      -2.49628474      -0.00039156      -0.00007764      -0.00050449
Cu       1.90416211      15.66122599       1.92066395       2.71381061       0.00008607      -0.00012306      -0.00097083
Au       1.96667379      17.56828285       0.05581858      -1.24291844       0.00053936       0.00035526       0.00065274
Au       0.00608865      15.79100433       3.96772863      -0.31761906      -0.00025831      -0.00104426       0.00031222
Cu      -0.09747483      17.60122812       5.87846910       2.87233714       0.00129381      -0.00166197      -0.00149032
Cu       1.85311770      15.77419254       5.99817811       2.62170719       0.00065082      -0.00030244      -0.00129164
Al       1.96630225      17.65423829       3.93136907      -2.63790617      -0.00012570      -0.00008711      -0.00020024
Cu       0.01819909      15.73131086       7.91295419       2.23900121       0.00119007      -0.00081573      -0.00063185
Cu       0.00008375      17.60131754       9.83117404       2.16881929      -0.00028293      -0.00011535       0.00003574
Au       1.93908962      15.71789745       9.84553121      -2.46163433      -0.00560204      -0.00219709      -0.00056758
Au       1.84668572      17.64731329       7.84497436      -1.57566809       0.00035572       0.00160013      -0.00143207
Al      -0.06459795      15.70538418      11.67976219      -4.11543850       0.00229202       0.00089044      -0.00340479
Au      -0.00456915      17.57880507      13.65144800      -1.36682245      -0.00130308      -0.00038607      -0.00009745
Cu       1.98611383      15.65603343      13.65808804       1.87852534       0.00234090       0.00008913      -0.00037366
Cu       1.90873013      17.62587044      11.69652678       2.01541858      -0.00000939       0.00126496       0.00078102
Au       3.86643144      -0.04998281       0.07807110       0.11374374      -0.00245029       0.00101650       0.00081264
Cu       3.90627031       1.93450073       2.06491363       2.58726704      -0.00070293       0.00056147      -0.00041128
Al       5.80242700      -0.03714106       2.00315311      -3.47889556      -0.00042234       0.00015656       0.00051488
Al       5.79069189       1.94523411       0.03603462      -2.30285804       0.00106422       0.00096555       0.00047610
Au       3.92757364      -0.03267130       3.91728355      -1.42934129       0.00042167       0.00121971       0.00031695
Cu       3.94379333       1.85681766       5.84213366       2.67533721      -0.00063326       0.00143587       0.00006870
Cu       5.80921024      -0.01528563       5.79008879       1.88134841       0.00029392       0.00013575      -0.00018094
Cu       5.80981163       1.88196482       3.95568605       1.75756250      -0.00054141       0.00040943       0.00011069
Au       3.85813461      -0.03768380       7.87016198      -0.97958824      -0.00040488      -0.00064341      -0.00065203
Cu       3.82341590       1.92840290       9.80031390       2.86608010      -0.00013201       0.00126321      -0.00062042
Al       5.83190193       0.00309761       9.84566228      -2.96834122      -0.00059581      -0.00014974      -0.00005994
Au       5.87493145       1.84307696       7.76022899      -0.29147920      -0.00070540       0.00215814       0.00016685
Al       3.86970464      -0.05745697      11.65535593      -3.30129382       0.00017475      -0.00112989      -0.00005464
Al       3.91800760       1.90809216      13.70578327      -2.31190936      -0.00009900      -0.00025184       0.00012676
Au       5.81500300      -0.09915932      13.64205383       0.26778740       0.00203993       0.00140657      -0.00108641
Cu       5.86724944       1.95583026      11.77941530       3.12944519      -0.00110645       0.00029353       0.00051925
Al       3.93709373       3.85581556       0.07264399      -2.53926873       0.00020621      -0.00058050      -0.00030192
Al       3.91161501       5.77611341       2.01481210      -2.26973665      -0.00089736       0.00061429       0.00130273
Cu       5.78318897       3.74131903       2.11947527       2.95646832       0.00174419      -0.00014186       0.00078303
Au       5.78773656       5.90197179      -0.05144562      -0.20964990      -0.00064522      -0.00065683       0.00023064
Cu       3.89112962       3.72214733       3.87409834       2.40864909      -0.00076981       0.00037039       0.00075026
Au       3.83178700       5.89577556       5.82828589       0.52302420       0.00060777       0.00190446       0.00018038
Al       5.77963454       3.86586429       5.82591012      -3.01538213      -0.00055352       0.00009160       0.00097588
Al       5.80754381       5.87696009       3.90519129      -2.36541415       0.00159930       0.00022984      -0.00020680
Au       3.89497017       3.80271589       7.87101940       0.12422679      -0.00027594       0.00081098       0.00039008
Au       3.87368273       5.85950900       9.79775117       1.00072708       0.00002009       0.00067998      -0.00099919
Al       5.87339080       3.81049136       9.80310491      -2.36227717      -0.00077959       0.00115634      -0.00040143
Al       5.83805982       5.87948136       7.84343920      -2.05470341      -0.00005731       0.00037780       0.00085964
Au       3.91070457       3.82960096      11.75920475      -0.30309302      -0.00105888       0.00074923      -0.00026060
Cu       3.87168092       5.88213076      13.76749171       2.76751117      -0.00053221       0.00021873      -0.00068105
Cu       5.79640673       3.95167024      13.67926824       3.27553893      -0.00138275       0.00009824       0.00016431
Al       5.79461697       5.90189120      11.79008767      -2.60903642      -0.00043250       0.00092789      -0.00062385
Au       3.83460331       7.87423103      -0.06256841      -0.78544778      -0.00080608       0.00107534       0.00040543
Cu       3.81108220       9.86407012       1.91612290       2.80067401       0.00146114       0.00006768      -0.00116288
Au       5.79987615       7.90333743       1.96521033       0.53709360       0.00077777       0.00007434      -0.00143025
Au       5.81662574       9.82842928      -0.01422256      -0.32635093       0.00021808      -0.00155793      -0.00080748
Au       3.75462120       7.96624352       3.92170143       0.48148694       0.00047161      -0.00040831       0.00189100
Al       3.84183593       9.83892286       5.93532000      -2.31233497      -0.00146108      -0.00066836       0.00048102
Au       5.81249294       7.87424473       5.87940996       0.91780017      -0.00133161      -0.00044910       0.00124317
Al       5.86618796       9.82976581       3.91232819      -2.71817137      -0.00015640       0.00059012      -0.00045635
Cu       3.90512154       7.82107583       7.81638177       3.45533618      -0.00062053       0.00173036      -0.00250153
Cu       3.90609945       9.91666144       9.98194615       2.42827145       0.00080835       0.00142490      -0.00112538
Au       5.71991342       7.98787198       9.82367993      -0.03381348      -0.00023004      -0.00033578       0.00099290
Al       5.77427829       9.87869265       7.90950264      -2.53692103      -0.00043014      -0.00027280      -0.00044699
Au       3.86270328       7.91880363      11.88145031      -0.66798816       0.00034736       0.00085419      -0.00006921
Al       3.86887172       9.88459508      13.67759749      -3.72615618      -0.00011403      -0.00037456      -0.00088914
Cu       5.84478996       7.87917750      13.73702163       2.72527868      -0.00061015       0.00027825      -0.00057116
Cu       5.79662843       9.87785506      11.74803002       2.19770105       0.00059643      -0.00039385       0.00115869
Au       3.80246359      11.84840397       0.01518446      -0.61098636       0.00053969       0.00014082       0.00046972
Al       3.85131494      13.85590679       1.98876389      -3.26529776       0.00066993      -0.00055408      -0.00036147
Au       5.84295013      11.77638827       1.96260201       0.49859063       0.00042795      -0.00014408      -0.00015899
Au       5.76933150      13.84444332       0.00794229      -0.28540848       0.00179094       0.00015241      -0.00089496
Au       3.84693982      11.75509251       3.92276698       0.35517897       0.00112248      -0.00015719      -0.00086109
Al       3.83263902      13.78248480       5.91115454      -2.21714492       0.00014581       0.00049743       0.00039517
Au       5.93788067      11.83412711       5.86298069       0.75522896      -0.00017268      -0.00028708      -0.00102516
Au       5.91540224      13.75236618       3.90370047       0.72061328       0.00146300      -0.00140086      -0.00023800
Al       3.90912498      11.85262463       7.91107002      -2.24061918      -0.00016547       0.00069353      -0.00060105
Cu       3.83861733      13.83042029       9.85477364       2.20730088       0.00073916      -0.00246637      -0.00135038
Cu       5.75399789      11.75490912       9.94221248       2.36538410       0.00085508      -0.00040072      -0.00013127
Al       5.80710885      13.75782353       7.95178765      -2.41167991      -0.00041157      -0.00040556      -0.00002635
Cu       3.89627822      11.88181319      11.69453948       1.83409838       0.00043778       0.00065937      -0.00109485
Cu       3.80035230      13.82818867      13.67056868       1.90485514       0.00019793      -0.00030080      -0.00080642
Au       5.76608287      11.92092553      13.65366504      -0.57125466       0.00101511      -0.00070957      -0.00152488
Au       5.70511930      13.82541768      11.67812456      -1.71203680       0.00022136      -0.00052509       0.00160162
Cu       3.79247767      15.68431295       0.00019188       2.12686947      -0.00006553       0.00061288      -0.00036550
Cu       3.86582869      17.54967206       1.94393615       2.42930987       0.00005246       0.00050807      -0.00095895
Cu       5.83021909      15.78138470       1.99119349       2.88943405       0.00095583       0.00068323      -0.00093779
Au       5.77697905      17.51723239       0.04806258      -0.55656271       0.00080240      -0.00216834       0.00128207
Al       3.86392360      15.77793330       3.96134876      -2.68687403       0.00098230       0.00006453      -0.00046568
Cu       3.91768294      17.69294358       5.93306140       2.90200711       0.00043481       0.00072828       0.00047605
Al       5.83019133      15.69315394       5.84647664      -2.31922633       0.00017064       0.00023737       0.00034254
Cu       5.78904695      17.69009156       3.91854819       2.60885232       0.00009496       0.00069904       0.00043680
Au       3.82806136      15.72193338       7.86819540      -1.01360744       0.00294922      -0.00241542      -0.00246994
Cu       3.82341117      17.58301908       9.81501538       2.19748205       0.00222394       0.00281138       0.00006699
Cu       5.69327148      15.76447759       9.86013111       2.23348436       0.00069734       0.00018222       0.00005936
Au       5.80609733      17.63894397       7.84982230      -0.26854528      -0.00047823       0.00024571       0.00027381
Cu       3.80057519      15.71597472      11.69403455       1.55578251       0.00224219       0.00051734       0.00382744
Au       3.81097423      17.52986156      13.62104991      -1.14041731      -0.00171253      -0.00217982      -0.00156145
Al       5.77679376      15.64047494      13.66641682      -3.81332305      -0.00089475       0.00013784      -0.00056057
Cu       5.78739763      17.51233415      11.71914559       2.48934124      -0.00022465      -0.00009148       0.00016834
Au       7.82063669      -0.04075596       0.00565632       0.16501114       0.00053855       0.00101150       0.00019045
Au       7.76177375       1.87831905       1.99298804      -0.44575888       0.00013757       0.00084188       0.00126490
Cu       9.77051236       0.04487442       1.94435838       2.32638316      -0.00066400       0.00024027       0.00208620
Cu       9.78346471       1.85252886       0.06318284       2.58371127      -0.00044678       0.00091829       0.00194809
Cu       7.74976231       0.03026834       3.92350118       2.23316402      -0.00049967      -0.00012236       0.00109376
Cu       7.75500337       1.87298944       5.78034944       2.51119388       0.00007408       0.00000353       0.00085273
Al       9.78816720      -0.04591347       5.82032172      -2.56511059      -0.00020351       0.00054439       0.00107147
Au       9.76463742       1.87236981       3.85288605      -0.66239530       0.00053554      -0.00086978       0.00015889
Al       7.83153466      -0.05818110       7.84744122      -2.28868640      -0.00016701      -0.00040505       0.00000971
Cu       7.84139301       1.94307433       9.79411104       3.45657371      -0.00070832       0.00037937       0.00081727
Al       9.80537397      -0.04900379       9.82333354      -1.75227008      -0.00122966      -0.00019756       0.00122772
Au       9.77015519       1.93160210       7.79721970       0.77465488      -0.00062805       0.00243872      -0.00060606
Au       7.80221946       0.03775121      11.72495483       0.06403569      -0.00113969       0.00209879       0.00161880
Au       7.74446694       1.99010164      13.73353258       0.02018809      -0.00062403      -0.00042937       0.00070904
Au       9.84765348       0.03769810      13.76437273       0.10708819      -0.00099356       0.00048500       0.00057203
Au       9.83754595       2.02627969      11.76763567       0.71400290       0.00039061       0.00104289       0.00274488
Al       7.71506143       3.91702722       0.07633499      -2.36938421       0.00070476      -0.00034750       0.00020514
Al       7.74339132       5.92523839       1.98478419      -2.51418295       0.00287173       0.00028904      -0.00153631
Al       9.75287032       3.89957005       1.91483162      -2.25235057       0.00092417      -0.00123133      -0.00057974
Au       9.74485363       6.07112513       0.07448013       0.64892721       0.00050416      -0.00268616       0.00033975
Au       7.73500327       3.83878660       3.92337005       0.01635038       0.00027953       0.00060971      -0.00062572
Au       7.84178459       5.97199715       5.85573177       0.33130710       0.00108305       0.00067496      -0.00106540
Au       9.79912348       3.90963913       5.80610764      -0.28587544       0.00050137       0.00031155       0.00118858
Au       9.78401026       5.96229620       3.90023346      -0.48600884      -0.00145099      -0.00020546       0.00021560
Au       7.81091592       3.84612302       7.77572840       0.74140934       0.00073782      -0.00046932       0.00043234
Al       7.80432714       5.89692379       9.77873633      -1.30066045      -0.00096892      -0.00017213       0.00178511
Al       9.81929764       3.93199059       9.75743054      -2.25902033      -0.00018268      -0.00004480       0.00128900
Au       9.88109516       5.95570206       7.74301809       0.62507258      -0.00044909      -0.00221060      -0.00018135
Al       7.77302732       3.91249734      11.74845517      -2.35165002      -0.00216989      -0.00098553       0.00091368
Au       7.76264886       5.93562388      13.73646997       0.18885352      -0.00106900      -0.00063231       0.00070217
Au       9.77885892       3.91297571      13.84897124       0.52410943       0.00028840       0.00050835       0.00215904
Au       9.82164398       5.83521017      11.77978811       1.36390370       0.00201788      -0.00081966      -0.00088461
Cu       7.71567037       7.87749173      -0.02145978       2.97825435       0.00130090      -0.00225183       0.00111231
Al       7.84175107       9.82880616       1.99421140      -3.23305625       0.00086034      -0.00101180       0.00035994
Cu       9.78325292       7.88362646       1.99601619       2.94730116       0.00060931      -0.00258059      -0.00079793
Au       9.73015457       9.75495255       0.04341839      -0.83538366       0.00257632      -0.00028459      -0.00030577
Cu       7.88165455       7.86580814       3.95634594       3.09950646       0.00119832      -0.00049165      -0.00080598
Au       7.85256566       9.77603680       5.85060162       0.39742060       0.00049140      -0.00036362       0.00012844
Cu       9.84089499       7.84518947       5.80255261       2.99462989       0.00001997       0.00031836       0.00163801
Au       9.79266200       9.77842585       3.91442214      -0.87927060      -0.00041917      -0.00074565      -0.00028952
Al       7.81326878       7.92788030       7.92069280      -1.88304722      -0.00132590       0.00011373       0.00054391
Cu       7.72468527       9.92477859       9.91443504       3.03882620      -0.00048988      -0.00064796       0.00047292
Al       9.85991358       7.88511478       9.81157778      -1.77006168      -0.00050801      -0.00053579       0.00146725
Al       9.84927912       9.75160063       7.84999345      -2.21070526       0.00052036       0.00032816       0.00004864
Au       7.73772621       7.94110393      11.71398833       0.14159816       0.00074726      -0.00149387       0.00089321
Au       7.73946548       9.83771514      13.69340584      -0.55276069       0.00026426      -0.00180557       0.00084204
Al       9.78194785       7.88381322      13.69036636      -2.63936121      -0.00041683      -0.00016222      -0.00030001
Au       9.81644649       9.90387704      11.73394569       0.53518948       0.00030855      -0.00048336      -0.00055181
Au       7.86505894      11.86340621      -0.05058674      -0.82622447       0.00164539      -0.00066580       0.00024859
Al       7.86725704      13.72111304       1.96028114      -2.87586387       0.00087602      -0.00118144      -0.00088399
Cu       9.83070651      11.78020377       1.98995804       2.67061008       0.00000894      -0.00078879      -0.00000080
Cu       9.76409228      13.68498061      -0.05918011       2.60253621      -0.00054302      -0.00032057      -0.00055304
Cu       7.87288421      11.81355397       3.94871381       3.05950912       0.00105585      -0.00032585       0.00004979
Cu       7.86575395      13.67015220       5.88606293       3.31174897       0.00116692      -0.00067368       0.00028866
Al       9.80821786      11.73884029       5.91714499      -2.72696492      -0.00025941       0.00037121      -0.00034091
Au       9.82148973      13.65767177       3.91104367      -0.03277931       0.00114352      -0.00112720       0.00030783
Au       7.77764555      11.77011863       7.94904677       0.49254534      -0.00108390      -0.00042586       0.00000929
Al       7.75762780      13.80314490       9.85298354      -2.31882876       0.00028610      -0.00065568       0.00083177
Au       9.86372793      11.79556922       9.77108111       0.50921991       0.00034976      -0.00066204       0.00166899
Au       9.83479585      13.78216325       7.82836712       0.47991232      -0.00132308       0.00016256      -0.00061624
Al       7.78201964      11.85904976      11.78076943      -3.07092923      -0.00022049      -0.00077671       0.00118980
Cu       7.83659200      13.77244783      13.75703594       2.51821497       0.00024753      -0.00023482      -0.00034255
Cu       9.76310765      11.73925041      13.78868638       3.06453995       0.00133536      -0.00023130       0.00092362
Al       9.77894460      13.72803696      11.82092607      -2.04368466      -0.00085972       0.00010019       0.00028869
Au       7.86413808      15.63708562       0.01732145      -0.19160320      -0.00055406       0.00019101      -0.00051445
Au       7.80639286      17.68022735       2.08786310      -0.54587429      -0.00072282      -0.00057642      -0.00054048
Al       9.84326767      15.67615363       2.00672222      -2.23132319       0.00027523      -0.00116785      -0.00069892
Al       9.78232589      17.63576867       0.02947005      -2.52254297      -0.00103613       0.00187552      -0.00038151
Al       7.83505117      15.68588066       3.92204234      -2.34125598       0.00138809      -0.00034897      -0.00011125
Au       7.74751006      17.72545289       5.72827121       0.09267361       0.00025646      -0.00028356       0.00044733
Al       9.81778854      15.72809610       5.78288444      -2.16240188       0.00044298      -0.00153195       0.00072092
Cu       9.79679468      17.77070968       3.81301694       3.11412895      -0.00087986      -0.00119098       0.00163976
Au       7.77715306      15.67046308       7.77870510       1.06900031       0.00010295       0.00008449       0.00125100
Au       7.73739100      17.47147937       9.92735441       0.24604462      -0.00001252      -0.00019440       0.00011306
Al       9.83792046      15.61665072       9.85448633      -1.95527572      -0.00018996       0.00057801       0.00084063
Al       9.79837623      17.55607777       7.83110176      -1.54920047       0.00028558      -0.00069207       0.00101517
Cu       7.73354712      15.61561189      11.83526619       2.95004652       0.00004017       0.00098706      -0.00026532
Au       7.79886383      17.54743106      13.62820303      -0.22619776       0.00040297       0.00067011      -0.00021513
Cu       9.68012980      15.61144370      13.75319871       3.06102614      -0.00057394       0.00076626      -0.00055124
Al       9.85760637      17.54317049      11.82281758      -2.06112587      -0.00056179      -0.00020451       0.00052224
Cu      11.71655473       0.11840571       0.04565070       2.53694483      -0.00012766       0.00051417       0.00143080