399
Lattice="19.59262691714357 -0.0029401591670048664 0.00043227724696582155 -0.0029405439160256983 19.594541571232078 0.002722427805357169 0.0003459403246241731 0.002177382872289726 15.670877927394494" Properties=species:S:1:pos:R:3:energies:R:1:forces:R:3 energy=11.932849787486653 free_energy=11.932849787486653 stress="0.0005749437245824532 0.00011374206403831452 -0.00015710244054921983 0.00011374206403831452 -5.107485949644107e-05 -0.00019113376643830203 -0.00015710244054921983 -0.00019113376643830203 0.0007383992524828667" pbc="T T T"
Au      -0.01751349       0.05005349       0.07041897      -1.22369552      -0.00014483       0.00091409      -0.00047072
Cu      -0.08206633       1.91875242       1.90223585       2.71911701      -0.00005293      -0.00272862       0.00022563
Cu       2.03585896      -0.05484265       1.94991485       3.23214234      -0.00123069      -0.00061383       0.00012573
Al       1.95961534       1.93885235       0.12946613      -3.31020128       0.00040474      -0.00031006      -0.00212731
Al      -0.07485688      -0.02646699       3.85437746      -2.47216158       0.00116677      -0.00033960      -0.00120800
Al      -0.06847234       1.99219452       5.77957192      -1.89249438      -0.00141796      -0.00302222       0.00266530
Al       1.90094949      -0.01165648       5.82475051      -2.18674864      -0.00060959      -0.00139096      -0.00067071
Al       1.89717614       1.87166166       3.77951544      -2.80048442      -0.00056080      -0.00144196      -0.00076338
Al      -0.07536731      -0.01531682       7.74632065      -2.47679177      -0.00086207      -0.00093481      -0.00066106
Au       0.00974646       1.93530135       9.75063397      -0.02030772       0.00065023       0.00073193       0.00128939
Cu       1.87282712      -0.10403868       9.80033502       2.18557730       0.00123032      -0.00035528       0.00030605
Au       1.94873838       1.91413842       7.85074547      -0.58511289       0.00064685      -0.00137517      -0.00056601
Cu       0.03401265      -0.11451620      11.74461650       2.01138151       0.00058871      -0.00095856      -0.00057186
Cu       0.00569036       1.89300339      13.78774091       2.56454548      -0.00010474      -0.00105073      -0.00117846
Au       1.87667233      -0.03292691      13.67706765      -0.28254895      -0.00120026      -0.00089469       0.00214289
Au       1.89691357       1.87123380      11.69041021      -0.87663489      -0.00029077      -0.00273132      -0.00202350
Cu       0.02831382       3.84365144       0.08679229       2.23228865      -0.00179923       0.00265502      -0.00211258
Cu      -0.07893113       5.79309588       1.82949212       2.58606434       0.00099780       0.00030092       0.00093571
Cu       1.87221339       3.86637411       1.95013830       2.66268772      -0.00301874      -0.00047746       0.00199259
Au       1.94630130       5.77788259       0.05274932      -0.38459851      -0.00486372      -0.00458399      -0.00536138
Al       0.01891400       3.95639844       3.79793836      -2.51330321       0.00217303       0.00136009      -0.00030738
Au       0.04620974       5.77436355       5.91313207       0.00014165       0.00412079      -0.00127483      -0.00638527
Au       2.02300731       3.79553143       5.77286481       0.16167832       0.00421222       0.00890321      -0.00011687
Cu       0.12404400       3.88199662       7.80810516       3.33196672       0.00023790       0.00095039      -0.00047629
Au       0.06634912       5.82996937       9.71138956       0.57533876       0.00208349      -0.00078513      -0.00050717
Cu       1.96558621       3.83345301       9.79455811       2.86065209       0.00045586      -0.00068034      -0.00214060
Al       2.00039934       5.85593974       7.82637422      -3.22499253       0.00040874      -0.00238021      -0.00150423
Au       0.01508027       3.90704071      11.77361026       0.30688412       0.00082870      -0.00055078      -0.00034385
Au      -0.03282848       5.84668059      13.83941921       0.39136050       0.00335768       0.00075987       0.00114868
Au       1.92253744       3.82937341      13.78194277       0.18318513      -0.00113487       0.00331344       0.00378751
Al       1.98830313       5.86462650      11.82005496      -2.76389233       0.00027138      -0.00103987       0.00005234
Al       0.01811987       7.82436431       0.05705579      -2.96908031      -0.00252288       0.00067717      -0.00291817
Au       0.05595465       9.76808369       2.06923393      -0.09948495      -0.00114000       0.00513553      -0.00347763
Al       1.94180591       7.80006751       1.95181889      -2.31561341       0.00209050      -0.00152950       0.00548624
Cu       1.97749872       9.83999830       0.02451928       3.01762385      -0.00040021       0.00271133      -0.00099706
Al       0.15666735       7.67013901       3.94860955      -2.51257078       0.00063197      -0.00074740       0.00159398
Al       0.05958245       9.73739555       5.92024807      -2.73620397       0.00153626       0.00292863       0.00090194
Cu       1.97039692       7.83085480       5.97219216       3.06981045       0.00137893      -0.00065508      -0.00109164
Cu       1.92280077       9.92131103       3.94254255       3.10749569       0.00101843       0.00065009      -0.00026594
Cu       0.01113683       7.72815381       7.77545432       3.58310099      -0.00261937       0.00337969       0.00180123
Al       0.01748167       9.79789884       9.71466040      -2.23803008       0.00066372      -0.00069767      -0.00122231
Al       2.02495717       7.90343015       9.78535410      -2.22493871       0.00094609      -0.00122445      -0.00074557
Al       1.99893961       9.79995643       7.90310002      -2.15193541       0.00099205       0.00156226       0.00058493
Al       0.09582522       7.85191207      11.74097336      -2.15929873      -0.00031831       0.00051226       0.00043090
Au       0.17785303       9.79398717      13.68783833       0.01856881       0.00070844       0.00137258       0.00062720
Cu       1.97003756       7.81228336      13.78216823       3.09281191      -0.00024258       0.00093120       0.00051530
Cu       2.02582741       9.92826692      11.72575077       2.94151128       0.00039624       0.00076955       0.00108873
Al       0.10487770      11.85218856      -0.02698815      -3.02529021      -0.00123595      -0.00093128      -0.00059339
Cu       0.08280322      13.79023687       2.02443546       2.86395230      -0.00046619      -0.00224224      -0.00025692
Au       1.88154972      11.80808003       1.99809732      -1.09514815       0.00106327       0.00289907      -0.00134518
Cu       1.99102745      13.84073270      -0.06351852       2.20481927      -0.00122527      -0.00021064      -0.00049976
Cu       0.01699811      11.80579290       3.98611312       2.76368373       0.00042770       0.00103283      -0.00097707
Au       0.01995154      13.81730572       6.07902209      -1.61098493      -0.00099619      -0.00132807      -0.00025816
Au       1.86176635      11.80793537       5.95136722       0.05430060       0.00123927       0.00012803      -0.00040825
Au       1.85732922      13.81375633       3.96595370      -0.41100325      -0.00022401      -0.00102549      -0.00077559
Cu       0.03337945      11.89300094       7.89116789       3.24781894      -0.00026730       0.00046297       0.00102245
Au      -0.04866094      13.78940925       9.70110206      -2.02786510      -0.00006243       0.00132483       0.00021516
Au       2.02495884      11.87163818       9.82181548      -1.42936745       0.00143157       0.00030518      -0.00104760
Cu       1.92208432      13.82326267       7.92016027       2.65638319       0.00109856       0.00050972       0.00046042
Au       0.01502290      11.80026817      11.66433070      -0.44889316      -0.00053876      -0.00084482       0.00172934
Au       0.04053508      13.82492687      13.59242885      -0.68123434      -0.00031446      -0.00017341       0.00018196
Au       2.02536727      11.89622706      13.60249173      -1.27549314      -0.00018341      -0.00033101       0.00027004
Cu       2.04126656      13.78848681      11.72341274       1.98296064      -0.00056330      -0.00008825       0.00065847
Au       0.06374565      15.60702694      -0.00668287      -0.53285667      -0.00005643      -0.00044779       0.00024674
Al      -0.01054400      17.67787140       1.98664380      -2.49279389       0.00027199       0.00107259       0.00029950
Cu       1.90352092      15.66076781       1.91996007       2.70977094       0.00002469       0.00005404       0.00049788
Au       1.96571851      17.56858802       0.05442648      -1.24633646       0.00059349       0.00015415      -0.00060752
Au       0.00346352      15.78919148       3.96988406      -0.32229743      -0.00012907      -0.00044181       0.00024978
Cu      -0.09888165      17.59847002       5.87827720       2.87900203       0.00010366       0.00095757      -0.00027682
Cu       1.85022247      15.77002586       5.99963675       2.62089903       0.00034114       0.00004127       0.00026707
Al       1.96564974      17.65015586       3.93104821      -2.63892606      -0.00003201       0.00087275      -0.00124819
Cu       0.01592166      15.72857266       7.91557449       2.23984585       0.00082286       0.00037009      -0.00028427
Cu       0.00112007      17.60321149       9.83083593       2.16741359      -0.00031563       0.00091874      -0.00049582
Au       1.93527122      15.71496755       9.84646185      -2.45688954       0.00205737       0.00074278      -0.00139217
Au       1.84508302      17.64490078       7.84420777      -1.57858468       0.00197123      -0.00256467       0.00156163
Al      -0.06606179      15.70526024      11.67952892      -4.10894792      -0.00123222      -0.00009947      -0.00055376
Au      -0.00401086      17.58239503      13.65139311      -1.36365273      -0.00048776       0.00029863      -0.00052260
Cu       1.98628790      15.65599591      13.65702738       1.87555763      -0.00043069       0.00050877      -0.00037226
Cu       1.90840705      17.62919338      11.69465839       2.00734218      -0.00066617      -0.00012391       0.00064110
Au       3.86803355      -0.05108853       0.07746455       0.10837397       0.00012101       0.00146508      -0.00080231
Cu       3.91037257       1.92394815       2.06743582       2.61712424      -0.00021385      -0.00120863      -0.00051744
Al       5.80521644      -0.04017232       2.00147106      -3.48175350      -0.00045855       0.00075852       0.00078022
Al       5.78883071       1.95298320       0.04052682      -2.30597891      -0.00147446      -0.00040615       0.00050613
Au       3.93016195      -0.03564311       3.91750778      -1.43923646      -0.00011878      -0.00161305       0.00068235
Cu       3.93845940       1.85944047       5.83667534       2.67240614       0.00092505      -0.00139846      -0.00192413
Cu       5.80797414      -0.01532937       5.79080681       1.88716098       0.00017713      -0.00044001       0.00092629
Cu       5.81709399       1.87883634       3.95590420       1.75009380      -0.00275651       0.00062174      -0.00109115
Au       3.85390973      -0.03595070       7.86593189      -0.98721949       0.00150784      -0.00026359      -0.00016570
Cu       3.81885734       1.93385333       9.78495665       2.84874586      -0.00034805       0.00058414      -0.00112855
Al       5.82926457       0.00964439       9.84290331      -2.96068195       0.00114565      -0.00059435      -0.00041516
Au       5.86719930       1.84950470       7.75316647      -0.29660700       0.00030173      -0.00042451      -0.00182664
Al       3.87149093      -0.05442071      11.65453234      -3.29099508      -0.00012599      -0.00185976      -0.00069424
Al       3.92131017       1.91079435      13.71330937      -2.31487102      -0.00000127      -0.00011601       0.00368603
Au       5.81607233      -0.09619153      13.64221516       0.26660793      -0.00038532      -0.00007708       0.00116241
Cu       5.86650957       1.95945824      11.78068716       3.13726961      -0.00012890       0.00001798      -0.00174412
Al       3.92697378       3.86147379       0.10812663      -2.55335932      -0.00072473      -0.00165803      -0.00129279
Al       3.79161228       5.76010765       2.15732652      -2.27079572      -0.00465310       0.00356233       0.00249873
Cu       5.77738424       3.75561698       2.12493575       2.93637657       0.00138664      -0.00339722      -0.00176569
Au       5.75710044       5.88864913      -0.00022200      -0.21299421      -0.00055924      -0.00059930      -0.00058829
Cu       3.89588557       3.68572244       3.88625514       2.28048153      -0.00335633       0.00075553       0.00187201
Au       3.76558857       5.89111540       5.72964414       0.32182343      -0.00605317      -0.00034069       0.00082660
Al       5.77463711       3.87912290       5.81852071      -3.00307722      -0.00010004       0.00015186      -0.00127391
Al       5.82927539       5.87987248       3.90175248      -2.34463102      -0.00220155       0.00024044      -0.00010506
Au       3.88630256       3.81452509       7.84385483       0.14641491      -0.00077810      -0.00098035      -0.00182962
Au       3.87643125       5.85611736       9.79980392       1.01449516       0.00037657       0.00111951       0.00081062
Al       5.86551759       3.81130809       9.79245923      -2.36349405       0.00016811       0.00007347      -0.00002983
Al       5.80657923       5.87781303       7.81277699      -2.05537825       0.00242878      -0.00145850      -0.00020655
Au       3.91372737       3.82643426      11.75815370      -0.29948769       0.00169812      -0.00094300      -0.00086593
Cu       3.88293076       5.88022732      13.76928827       2.74825850      -0.00170631       0.00007796       0.00171580
Cu       5.78641862       3.95956215      13.69438464       3.25829794      -0.00040709      -0.00186809       0.00235688
Al       5.79439622       5.89992709      11.78993810      -2.60458911      -0.00066644      -0.00044082       0.00150227
Au       3.82691244       7.86846387      -0.05046149      -0.80640757       0.00061282       0.00017015      -0.00202007
Cu       3.80118611       9.86400870       1.92307895       2.79901080      -0.00088829       0.00158394       0.00084036
Au       5.76934462       7.88950373       1.97884866       0.53428204       0.00154624       0.00025504       0.00106099
Au       5.81038968       9.82010225      -0.00483273      -0.32840629      -0.00088478       0.00100931       0.00039079
Au       3.72183201       7.98370458       3.93634535       0.31399725      -0.00316049      -0.00445805      -0.00084041
Al       3.84244342       9.85353925       5.94288448      -2.31786198      -0.00019496       0.00234621       0.00016142
Au       5.78612654       7.85979385       5.86884400       0.91269144       0.00228992       0.00177827      -0.00093259
Al       5.85466682       9.82400139       3.91318323      -2.71516510      -0.00080847      -0.00001857      -0.00037099
Cu       3.89989068       7.81607520       7.80394810       3.43470665      -0.00079628       0.00000020      -0.00056820
Cu       3.90746036       9.91793392       9.98211246       2.43163061       0.00039548       0.00028328       0.00120413
Au       5.71549828       7.98451314       9.81824720      -0.02409435      -0.00004248      -0.00025958      -0.00036775
Al       5.77114714       9.87444885       7.90584962      -2.52906468      -0.00113295      -0.00051097      -0.00131325
Au       3.86700662       7.91831680      11.88222802      -0.67187762       0.00047982      -0.00001544       0.00119623
Al       3.86660343       9.87999249      13.68317030      -3.72166633       0.00100997      -0.00049507       0.00135968
Cu       5.83530658       7.86566979      13.75341549       2.70901854      -0.00182401      -0.00019196       0.00331402
Cu       5.79442229       9.87414355      11.74956816       2.20217604       0.00088896      -0.00096973      -0.00019709
Au       3.79955653      11.84546103       0.01866687      -0.60751519       0.00103504       0.00042753      -0.00036903
Al       3.84970460      13.85569147       1.98862212      -3.26430612       0.00002748      -0.00022861      -0.00068089
Au       5.84174526      11.77420130       1.96484172       0.49710284      -0.00125670      -0.00047292      -0.00150177
Au       5.76775721      13.84227863       0.00732283      -0.28837662       0.00085831       0.00045030       0.00038968
Au       3.84559825      11.76025136       3.92435512       0.35162571      -0.00044745       0.00047052       0.00029588
Al       3.83140302      13.78150877       5.91315193      -2.21580343       0.00024887      -0.00013659       0.00097168
Au       5.93905356      11.83520817       5.86169100       0.75135341      -0.00127334      -0.00033517       0.00029546
Au       5.91567542      13.75346033       3.90287509       0.72077288       0.00138113      -0.00005968       0.00125350
Al       3.90987328      11.85680955       7.91716464      -2.24659903       0.00037232      -0.00050433      -0.00093204
Cu       3.83816067      13.82928626       9.85708051       2.20619309       0.00061878      -0.00009378      -0.00032775
Cu       5.75577835      11.75252111       9.94269390       2.36613935       0.00065513       0.00068545       0.00039540
Al       5.80750561      13.75887918       7.95143786      -2.40705713       0.00171376      -0.00046036       0.00231454
Cu       3.89709252      11.87929942      11.69487305       1.83325960      -0.00067601       0.00101388       0.00067272
Cu       3.80059784      13.82693318      13.67088230       1.90580559      -0.00048999      -0.00057168      -0.00018065
Au       5.76354787      11.91573393      13.65624241      -0.57090672       0.00010221       0.00010102       0.00208453
Au       5.70509155      13.82310485      11.68066626      -1.70899308       0.00043963      -0.00021550       0.00017572
Cu       3.79219617      15.68488725      -0.00084359       2.12412750       0.00035622      -0.00045500      -0.00045265
Cu       3.86655663      17.54764452       1.94294497       2.42435627       0.00037823       0.00040226      -0.00137894
Cu       5.83014598      15.78141973       1.98957829       2.88769701       0.00128844      -0.00122450       0.00038237
Au       5.77787480      17.51680454       0.04599886      -0.55438534      -0.00096040       0.00201629       0.00055884
Al       3.86410656      15.77645401       3.96123359      -2.68361263      -0.00003642      -0.00114423       0.00054594
Cu       3.91625993      17.69054242       5.93358008       2.90626664       0.00170374      -0.00036285       0.00065207
Al       5.82893557      15.69337286       5.84749592      -2.31969905       0.00235835      -0.00021718       0.00097685
Cu       5.79001002      17.68890269       3.91869788       2.61220779       0.00158393      -0.00098010      -0.00004466
Au       3.82614645      15.71940150       7.86980458      -1.00843877      -0.00024627       0.00028611       0.00262780
Cu       3.82113151      17.58383134       9.81434410       2.18913908       0.00060016      -0.00135681      -0.00079394
Cu       5.69272896      15.76423504       9.86171419       2.22767034       0.00090162       0.00081236       0.00107404
Au       5.80269010      17.63931444       7.85153961      -0.27227563       0.00172659       0.00098010       0.00064755
Cu       3.79980488      15.71572666      11.69390848       1.55253570       0.00072846       0.00030302      -0.00005741
Au       3.80968624      17.53157694      13.61899136      -1.14106771       0.00019663       0.00090082       0.00065129
Al       5.77540027      15.64120053      13.66608462      -3.81279592       0.00073812       0.00019081      -0.00077155
Cu       5.78605449      17.51515589      11.71856251       2.48754681       0.00003741      -0.00018500      -0.00025851
Au       7.82061860      -0.03706778       0.00339421       0.16444056       0.00122288       0.00018803       0.00174821
Au       7.76025355       1.88115766       1.99124454      -0.43259463      -0.00004684      -0.00128229       0.00098119
Cu       9.76977912       0.04685460       1.94131728       2.32757225       0.00151454       0.00037414       0.00031073
Cu       9.78457984       1.85753869       0.05961181       2.57940745       0.00056548       0.00058140       0.00088272
Cu       7.75034664       0.02980981       3.92320462       2.22990740       0.00110807      -0.00101718       0.00047218
Cu       7.75331133       1.87635382       5.77988424       2.50703148       0.00054987      -0.00098604       0.00089144
Al       9.78661367      -0.04442270       5.82127374      -2.56346585       0.00079836       0.00002467       0.00073397
Au       9.76359556       1.87166864       3.85015315      -0.66360051       0.00032113       0.00021853      -0.00025901
Al       7.82710910      -0.05350838       7.84790625      -2.28837014       0.00064344      -0.00089221       0.00001700
Cu       7.83821672       1.94847997       9.79513574       3.44778786      -0.00109865      -0.00041016      -0.00077636
Al       9.80418340      -0.04525197       9.82509099      -1.74837876       0.00042894      -0.00018406       0.00085444
Au       9.76798692       1.93427380       7.79879661       0.77423824      -0.00127567       0.00033518       0.00011036
Au       7.80196318       0.04378664      11.72571071       0.06187833       0.00015638       0.00097964      -0.00031938
Au       7.74334328       1.99692658      13.73554440       0.02426021       0.00069341       0.00025254       0.00169329
Au       9.84885874       0.04322707      13.76358754       0.10203284       0.00040663      -0.00063639      -0.00040284
Au       9.83896071       2.03514350      11.77137428       0.72735301       0.00003832       0.00064335       0.00056110
Al       7.71466413       3.92232785       0.07923336      -2.36802632      -0.00095986      -0.00006254       0.00203046
Al       7.75500724       5.93323421       1.98136227      -2.52901021       0.00078945       0.00042338       0.00143904
Al       9.75622720       3.90064207       1.90914596      -2.25498182       0.00021444       0.00004801       0.00134710
Au       9.75342738       6.07353079       0.06746354       0.65131977      -0.00066795      -0.00020765       0.00067917
Au       7.73839189       3.83984462       3.92029151       0.01805203      -0.00125585      -0.00116521      -0.00055571
Au       7.84312619       5.97626880       5.85611584       0.33206295      -0.00120752      -0.00087125      -0.00168789
Au       9.79771172       3.90824338       5.80530326      -0.28923307      -0.00046269       0.00075356      -0.00076650
Au       9.78606229       5.96174175       3.90026003      -0.48957995      -0.00040226       0.00000214       0.00014293
Au       7.80549612       3.84862063       7.77157485       0.73683669      -0.00081256       0.00023789      -0.00116146
Al       7.78928681       5.89634199       9.76829996      -1.30308877      -0.00295197       0.00009025       0.00026185
Al       9.81222184       3.93422032       9.76041959      -2.25464938      -0.00092667       0.00126434      -0.00037945
Au       9.87807133       5.95266737       7.74315377       0.63116897      -0.00242290       0.00030658       0.00088519
Al       7.76377152       3.91769584      11.75287085      -2.34626005       0.00017365       0.00194155      -0.00075246
Au       7.74092224       5.93483894      13.75844263       0.14102422      -0.00118945      -0.00136780       0.00074966
Au       9.78057959       3.92269776      13.84701488       0.53043457      -0.00025881      -0.00042324       0.00139250
Au       9.80831510       5.83930971      11.78214573       1.37077946      -0.00042312      -0.00120261       0.00127658
Cu       7.70433774       7.86917827      -0.01169772       2.96796230      -0.00041133       0.00041743       0.00050411
Al       7.83186265       9.81406133       1.99687825      -3.23324416      -0.00127558      -0.00056082       0.00088903
Cu       9.78805950       7.88152491       1.99585826       2.96046743      -0.00042152       0.00063366       0.00116351
Au       9.72397108       9.75127845       0.04626240      -0.83258981      -0.00084451      -0.00088293       0.00088642
Cu       7.88063237       7.86402629       3.95549403       3.11749775      -0.00150173       0.00049363       0.00055314
Au       7.84135942       9.76639960       5.84711849       0.39278070      -0.00124723       0.00060003       0.00092697
Cu       9.83952330       7.84551057       5.80082027       3.00468527      -0.00026900       0.00028728       0.00089732
Au       9.78891311       9.77708842       3.91479418      -0.88743444       0.00040370       0.00051434      -0.00022327
Al       7.80267899       7.92306940       7.91392971      -1.87883573      -0.00089484       0.00067714       0.00076477
Cu       7.72090557       9.91898860       9.91446244       3.03165342      -0.00075978      -0.00036902       0.00061325
Al       9.85259264       7.88327684       9.81118584      -1.77183824      -0.00035733      -0.00067942       0.00056061
Al       9.84186520       9.74999668       7.84729285      -2.20998023      -0.00030845      -0.00057121      -0.00014820
Au       7.72890091       7.93539780      11.71822670       0.14711219      -0.00027587      -0.00143782       0.00150615
Au       7.73152474       9.82976738      13.69842541      -0.54257387       0.00020218      -0.00033977       0.00167417
Al       9.77618050       7.88183807      13.68761994      -2.62937832       0.00013703      -0.00188032       0.00094969
Au       9.81172064       9.90121111      11.73298063       0.53850942      -0.00017120      -0.00189457       0.00080477
Au       7.86072435      11.85832460      -0.04815844      -0.82547419       0.00000618      -0.00000497       0.00124634
Al       7.86587283      13.72054723       1.95976141      -2.87716190       0.00055313       0.00052135      -0.00007087
Cu       9.82436617      11.77627809       1.99191283       2.66763182       0.00070037       0.00085665       0.00023984
Cu       9.75945018      13.68408030      -0.05820214       2.60113304       0.00121515       0.00053483      -0.00106745
Cu       7.86971423      11.80877946       3.94648102       3.05295096       0.00027562       0.00066133       0.00103036
Cu       7.86494149      13.67095525       5.88576542       3.31397146       0.00152873       0.00041351       0.00106951
Al       9.80207094      11.73488152       5.91712203      -2.72594187       0.00048473       0.00043040       0.00002001
Au       9.81898571      13.65599457       3.91217744      -0.02933340       0.00108169      -0.00006936       0.00029475
Au       7.77388603      11.76627873       7.94904395       0.49546794       0.00039242       0.00076992      -0.00030454
Al       7.75615434      13.80121552       9.85319092      -2.31667763       0.00128062       0.00015685       0.00121978
Au       9.86080035      11.79400903       9.76901825       0.50958311       0.00094133      -0.00007587       0.00150056
Au       9.83263528      13.78057904       7.82647941       0.47934123       0.00093633       0.00030704       0.00167690
Al       7.77993071      11.85446074      11.78303992      -3.07054249       0.00068457      -0.00122184       0.00092306
Cu       7.83328111      13.77031934      13.75860671       2.51538709       0.00004601       0.00067927      -0.00103670
Cu       9.75671812      11.73847894      13.79084554       3.05780234       0.00046360      -0.00034798      -0.00015933
Al       9.77388800      13.72980976      11.82110279      -2.03822154       0.00059338      -0.00019379       0.00085702
Au       7.86247298      15.63726429       0.01714008      -0.19689830       0.00205675       0.00048606      -0.00123809
Au       7.80728282      17.68039401       2.08609852      -0.54218609       0.00090948      -0.00091568      -0.00148929
Al       9.84380581      15.67592330       2.00792950      -2.22698197       0.00145934       0.00064319      -0.00006086
Al       9.78188897      17.63804869       0.02859592      -2.52108295       0.00154163      -0.00040069      -0.00175784
Al       7.83482138      15.68723403       3.92225196      -2.34106505       0.00172496      -0.00048104       0.00018686
Au       7.74648931      17.72611391       5.73013883       0.09292697       0.00016075      -0.00023176       0.00167920
Al       9.81881201      15.72842775       5.78301732      -2.15912296       0.00088944      -0.00014607       0.00074360
Cu       9.79583655      17.77252108       3.81308610       3.11001256       0.00140106       0.00014849       0.00034858
Au       7.77637207      15.67203464       7.77993162       1.06932461       0.00107388       0.00053850       0.00183928
Au       7.73529412      17.47529858       9.92785662       0.24386766       0.00093822      -0.00013684       0.00031125
Al       9.83679207      15.61762751       9.85249470      -1.95078186       0.00059268      -0.00001069       0.00164693
Al       9.79742180      17.55873631       7.83146047      -1.54581087       0.00133751      -0.00100800       0.00106041
Cu       7.73072605      15.61723946      11.83456091       2.94678183       0.00086742       0.00006615      -0.00090375
Au       7.79848032      17.54991876      13.62698193      -0.22592341       0.00159319      -0.00023860      -0.00019895
Cu       9.67760631      15.61198526      13.75404358       3.05762190       0.00168098      -0.00023102      -0.00154434
Al       9.85710922      17.54434896      11.82273378      -2.05635200       0.00182653       0.00050389       0.00021136
Cu      11.71765190       0.12299256       0.04288013       2.52948525       0.00002545      -0.00016411      -0.00103531
Cu      11.77409971       1.90458059       1.91372231       2.32933239       0.00048181       0.00086692      -0.00037622