399
Lattice="19.59262691714357 -0.0029401591670048664 0.00043227724696582155 -0.0029405439160256983 19.594541571232078 0.002722427805357169 0.0003459403246241731 0.002177382872289726 15.670877927394494" Properties=species:S:1:pos:R:3:energies:R:1:forces:R:3 energy=12.100851117773788 free_energy=12.100851117773788 stress="0.0006649222115189524 -5.77729495071452e-05 0.00010200457894884502 -5.77729495071452e-05 -1.2839061505959173e-06 -0.00027805665245556494 0.00010200457894884502 -0.00027805665245556494 0.0007584879644593232" pbc="T T T"
Au      -0.03176362       0.05897731       0.07574014      -1.21630841       0.00059678      -0.00238464      -0.00033075
Cu      -0.13215367       1.94530944       1.89247720       2.67146757      -0.00229762       0.00178209      -0.00181626
Cu       2.02948442      -0.04276099       1.95365938       3.22750916       0.00065682       0.00230166       0.00070755
Al       1.93980366       1.94630501       0.13186171      -3.30299755       0.00213439      -0.00053687      -0.00055005
Al      -0.08055939      -0.00889609       3.84225116      -2.46056873      -0.00003161      -0.00254964       0.00099027
Al      -0.09553085       2.00066154       5.77381127      -1.87908457       0.00143785      -0.00148650      -0.00232200
Al       1.89341471       0.00349034       5.81670112      -2.17827646      -0.00003113      -0.00009167      -0.00012600
Al       1.87722370       1.91218373       3.77233292      -2.79500271       0.00029056      -0.00082487       0.00105115
Al      -0.07983683      -0.01396171       7.74018807      -2.47116627       0.00177413       0.00027289      -0.00017325
Au       0.00825135       1.92993715       9.75007972      -0.01748681      -0.00017198       0.00117095      -0.00126876
Cu       1.87333742      -0.10759765       9.80000103       2.18200712       0.00079417       0.00144137      -0.00066458
Au       1.94589739       1.90935857       7.85671487      -0.58233266      -0.00168730      -0.00122792      -0.00009893
Cu       0.03559710      -0.11951219      11.74277049       2.01369086      -0.00007928       0.00030610      -0.00131065
Cu       0.00057819       1.89187460      13.78901828       2.58822860       0.00097949      -0.00166696      -0.00197678
Au       1.87025320      -0.03144129      13.68267135      -0.28290307      -0.00069541       0.00160567      -0.00008054
Au       1.89550203       1.86937680      11.69144438      -0.86713961       0.00043658      -0.00081445      -0.00090466
Cu      -0.01097244       3.86354513       0.11161732       2.13612242      -0.00267302      -0.00223457       0.00058837
Cu      -0.09862498       5.80520974       1.85634550       2.77402649       0.00104413      -0.00108656       0.00095909
Cu       1.86530792       3.86137642       1.93643183       2.89160117       0.00056012      -0.00057115       0.00243737
Au       1.93237598       5.77980845       0.07646146      -0.34964767      -0.00065866       0.00008096      -0.00244848
Al      -0.11140700       3.91806814       3.77268935      -2.55658079      -0.00202911       0.00103772       0.00191173
Au      -0.03793987       5.75861829       5.87801237       0.15459404      -0.00016416      -0.00050257       0.00020858
Au       2.00878656       3.79062576       5.79460263       0.33170582      -0.00097291       0.00068782      -0.00061288
Al       1.91132665       5.77379283       3.82394399      -2.29787788      -0.00016319      -0.00069953       0.00235397
Cu       0.11053469       3.88177882       7.81115192       3.32733206      -0.00037366      -0.00059540      -0.00069037
Au       0.06117995       5.83345576       9.70895746       0.58768980       0.00028592       0.00066584      -0.00131453
Cu       1.96080814       3.83480663       9.78965705       2.85954118      -0.00026122       0.00051074      -0.00117495
Al       1.96550952       5.86031012       7.80065693      -3.23138325       0.00009131      -0.00022364      -0.00075987
Au       0.01991278       3.90473987      11.76778259       0.31056276      -0.00090329       0.00223703      -0.00097933
Au      -0.02332012       5.85069582      13.83562595       0.37063256      -0.00110699       0.00086378      -0.00235021
Au       1.91279094       3.83298237      13.78958420       0.20807382       0.00028841       0.00142340      -0.00121214
Al       1.98693076       5.86510318      11.81414120      -2.76223200      -0.00100584       0.00098437       0.00077251
Al       0.01995547       7.82812117       0.06364831      -2.96586943      -0.00094163       0.00097662       0.00023705
Au       0.05001097       9.79128555       2.06132369      -0.09012798      -0.00036849       0.00093148       0.00073942
Al       1.94214142       7.83131834       1.95168550      -2.40740618       0.00025241       0.00167763       0.00100782
Cu       1.98235310       9.84807702       0.01829209       3.02471587      -0.00063580      -0.00066279       0.00005671
Al       0.02110275       7.73363351       3.93588476      -2.60449727       0.00028844      -0.00135757       0.00028033
Al       0.05046465       9.74143639       5.91364735      -2.71762801      -0.00110673      -0.00024914       0.00086056
Cu       1.94654727       7.79955794       5.90882050       3.13421503      -0.00028015       0.00231346      -0.00071898
Cu       1.92684363       9.89376317       3.93719652       3.06225797      -0.00089196       0.00036809       0.00124183
Cu      -0.00686401       7.72251138       7.75080863       3.56081450      -0.00115596       0.00013186      -0.00108173
Al       0.01159972       9.79509327       9.71141926      -2.22732199       0.00137039       0.00122188      -0.00081707
Al       2.01473208       7.90136041       9.78172669      -2.20366151      -0.00097177       0.00101145       0.00038499
Al       1.98525376       9.78120502       7.88645073      -2.11437409       0.00324898       0.00177648       0.00147247
Al       0.09421457       7.85536005      11.74421971      -2.16354234      -0.00017094       0.00108239      -0.00096918
Au       0.17404714       9.79474546      13.69237161       0.01837489       0.00005013       0.00081070      -0.00087136
Cu       1.96876786       7.81482947      13.78352602       3.08343193      -0.00059487      -0.00126698       0.00009305
Cu       2.02200252       9.92673086      11.72609054       2.94299809       0.00042580       0.00050563      -0.00080494
Al       0.10356106      11.85682112      -0.02728928      -3.03063347       0.00088347      -0.00014015      -0.00019744
Cu       0.08639285      13.78906616       2.02492114       2.85662823       0.00016965      -0.00131483      -0.00023930
Au       1.89131951      11.80818127       1.99803629      -1.07390962       0.00075582      -0.00129496      -0.00005100
Cu       1.99335088      13.84054076      -0.06421866       2.20494879       0.00072918      -0.00041130      -0.00003081
Cu       0.01873817      11.80746637       3.98145667       2.76312487      -0.00068137       0.00062237       0.00062673
Au       0.02334108      13.81452104       6.07960710      -1.60708086       0.00146373      -0.00019901      -0.00090720
Au       1.86184815      11.80013588       5.94530360       0.07248021       0.00110660       0.00033654       0.00133897
Au       1.86132439      13.81203893       3.96651389      -0.40828305       0.00046915      -0.00003852      -0.00071317
Cu       0.03373264      11.89086650       7.89089548       3.24321016       0.00104264       0.00013436      -0.00104442
Au      -0.04690043      13.78712629       9.70203840      -2.02818720       0.00113123      -0.00049910      -0.00002883
Au       2.02259340      11.86320317       9.81848688      -1.43020556      -0.00041453       0.00092146       0.00090755
Cu       1.92403958      13.82003070       7.92102802       2.64964293       0.00031659      -0.00056511      -0.00120108
Au       0.01193212      11.79680677      11.66422282      -0.44953253       0.00158006      -0.00108174      -0.00200924
Au       0.03977821      13.82514330      13.58925620      -0.67778514       0.00058965       0.00066184       0.00129342
Au       2.02345477      11.89674357      13.60048089      -1.27784795       0.00186764      -0.00030092       0.00107349
Cu       2.03941388      13.78681881      11.71958809       1.98022092       0.00138125      -0.00025271       0.00088241
Au       0.06771297      15.60620911      -0.00705133      -0.53221930       0.00077716       0.00075562       0.00131244
Al      -0.01067302      17.67964749       1.98808117      -2.48745532      -0.00087135       0.00074266      -0.00062252
Cu       1.90545484      15.66141754       1.92087305       2.70457275       0.00111282       0.00078693      -0.00034396
Au       1.96310703      17.57406332       0.05774706      -1.23130340       0.00075928      -0.00036697      -0.00003614
Au       0.00632246      15.78694545       3.97033197      -0.32534857       0.00065418       0.00023043      -0.00132314
Cu      -0.09937165      17.60280695       5.87221265       2.87163535      -0.00053581       0.00103560      -0.00106785
Cu       1.85062156      15.77006372       5.99945868       2.62172411       0.00071789      -0.00100130      -0.00156063
Al       1.96354786      17.65506648       3.93142845      -2.63829207      -0.00009713       0.00040626      -0.00065135
Cu       0.01891051      15.72711463       7.91564519       2.23955826       0.00005419       0.00098404      -0.00210157
Cu       0.00332794      17.60234242       9.82790338       2.16866630       0.00060896       0.00043998      -0.00168189
Au       1.93671509      15.71618648       9.84400926      -2.45960799      -0.00074554      -0.00075838       0.00052472
Au       1.84508951      17.64827610       7.83891286      -1.58293107       0.00151903       0.00126440      -0.00154263
Al      -0.06579310      15.70525957      11.67696109      -4.11159959       0.00441806      -0.00131761       0.00049307
Au      -0.00373458      17.58093955      13.65202985      -1.36554971       0.00009524      -0.00020513      -0.00019231
Cu       1.98685359      15.65596070      13.65707660       1.87229399       0.00000499       0.00002015      -0.00022164
Cu       1.90858485      17.62733186      11.69665449       2.00629965       0.00090638       0.00018455      -0.00074776
Au       3.86172187      -0.04280544       0.08029923       0.11054855      -0.00010241       0.00087038       0.00010441
Cu       3.90235063       1.93838116       2.06797597       2.58979406      -0.00180565       0.00155422       0.00000064
Al       5.80020967      -0.03258089       2.00454908      -3.47744826      -0.00004432      -0.00004141      -0.00036792
Al       5.79297002       1.94645554       0.03491968      -2.29765317      -0.00042773       0.00184636       0.00117383
Au       3.92001290      -0.02278158       3.91691939      -1.43453816       0.00061440       0.00008012      -0.00060387
Cu       3.93599217       1.86729212       5.83639345       2.66249107       0.00049035       0.00018404      -0.00140821
Cu       5.80626356      -0.01073465       5.78856625       1.87701694      -0.00125862       0.00053983      -0.00122137
Cu       5.81040982       1.88426037       3.95668501       1.75547909       0.00012059       0.00130798      -0.00099889
Au       3.85523682      -0.03382344       7.86367740      -0.99113024       0.00034069      -0.00073827      -0.00218665
Cu       3.81938008       1.93038155       9.78989268       2.85275877      -0.00014680       0.00193241       0.00004700
Al       5.83134833       0.00873353       9.84546924      -2.95893456      -0.00019096      -0.00056089      -0.00169553
Au       5.87205559       1.84819731       7.75675791      -0.28205116      -0.00090700       0.00058728      -0.00125634
Al       3.86973401      -0.05783982      11.65593473      -3.29023502      -0.00052553       0.00122880       0.00101761
Al       3.91577141       1.90866181      13.70883016      -2.31019159      -0.00258991       0.00012602      -0.00020984
Au       5.81660852      -0.09554567      13.64183751       0.26702147      -0.00013764       0.00264599       0.00225953
Cu       5.86761270       1.96032809      11.78219431       3.12139250       0.00003659       0.00030956       0.00042732
Al       3.93644270       3.85310816       0.07661265      -2.53092094      -0.00114937       0.00059164       0.00057074
Al       3.91442154       5.77539611       2.01662179      -2.27052355      -0.00100541       0.00175984       0.00150798
Cu       5.78408720       3.74023649       2.12113970       2.95650254      -0.00025525       0.00273232      -0.00131715
Au       5.78680706       5.90205861      -0.05409956      -0.21119346      -0.00001841      -0.00092156       0.00143147
Cu       3.88951263       3.72465543       3.87651566       2.40215253       0.00005591       0.00141179      -0.00173209
Au       3.83416304       5.89890765       5.82644097       0.52605465      -0.00199897       0.00180373      -0.00174657
Al       5.78376986       3.86827451       5.82444332      -3.01347776       0.00000913       0.00170624      -0.00242253
Al       5.81192153       5.87772612       3.90454413      -2.36550857       0.00030430       0.00109322      -0.00107501
Au       3.88948073       3.80996844       7.85879542       0.11299150      -0.00079147      -0.00035855      -0.00165094
Au       3.86683513       5.85999571       9.78640365       0.98170231       0.00029506       0.00058790       0.00158505
Al       5.87145783       3.81265166       9.80003075      -2.35814020      -0.00079133      -0.00110088       0.00018719
Al       5.84351873       5.88014505       7.84416408      -2.05082291      -0.00050906      -0.00023928      -0.00062315
Au       3.90729055       3.82914493      11.75522094      -0.29753738      -0.00101530       0.00012002       0.00153205
Cu       3.86862080       5.88040412      13.76776104       2.75995273      -0.00017514       0.00067620       0.00239738
Cu       5.79342493       3.95278533      13.67778669       3.26670627      -0.00061387      -0.00011254       0.00153281
Al       5.79135951       5.90178223      11.78755776      -2.60568675      -0.00036979      -0.00106218      -0.00044744
Au       3.83351727       7.87408469      -0.06107947      -0.78414301       0.00021157      -0.00002601      -0.00033021
Cu       3.81443912       9.86469073       1.91662573       2.80189177      -0.00014599      -0.00132772       0.00018187
Au       5.80340096       7.90252365       1.96262036       0.53631401      -0.00146789       0.00100774       0.00031994
Au       5.81774457       9.82699621      -0.01673336      -0.32591154      -0.00074274      -0.00059297       0.00098677
Au       3.76269237       7.96674358       3.92191175       0.48352524      -0.00161825       0.00150257      -0.00047528
Al       3.83800985       9.83306012       5.93953873      -2.31139745       0.00169220       0.00218983      -0.00015988
Au       5.81768945       7.87432272       5.88243279       0.92308401      -0.00072541      -0.00032802      -0.00294691
Al       5.86898792       9.82898058       3.91384161      -2.71763836       0.00067361      -0.00011626      -0.00204911
Cu       3.90161770       7.81934712       7.81402890       3.45120220       0.00144565       0.00177965      -0.00025069
Cu       3.90506148       9.91319139       9.98067949       2.42357066       0.00125255      -0.00071561       0.00125900
Au       5.72180257       7.98544162       9.82380063      -0.02574057       0.00113053      -0.00045565       0.00202253
Al       5.77729652       9.87624374       7.91056384      -2.53034867       0.00168065      -0.00093806      -0.00009281
Au       3.86282636       7.91796527      11.87808416      -0.66941184      -0.00056121       0.00063848       0.00044454
Al       3.86861066       9.88424398      13.67569052      -3.72616749      -0.00024360      -0.00078141       0.00057435
Cu       5.84454241       7.87858298      13.73511105       2.72030741       0.00202101      -0.00006644       0.00256617
Cu       5.80031611       9.87373471      11.75003748       2.19384004       0.00125927      -0.00064796       0.00104825
Au       3.80367415      11.84890728       0.01298838      -0.61549567       0.00010054      -0.00064551       0.00042771
Al       3.85345653      13.85546095       1.98998917      -3.25883905       0.00062615      -0.00124690      -0.00055826
Au       5.84259044      11.77430050       1.96211599       0.49620481       0.00141034       0.00058197       0.00099320
Au       5.77093496      13.84270016       0.00670838      -0.28057144       0.00006220       0.00010824      -0.00090153
Au       3.84692922      11.75094492       3.92745699       0.35858441       0.00074918      -0.00180185      -0.00095777
Al       3.83169032      13.77774977       5.91483094      -2.21294735       0.00253565      -0.00088746      -0.00009900
Au       5.93993595      11.82989858       5.86494033       0.75463963       0.00030436       0.00034522      -0.00036969
Au       5.91702006      13.74857430       3.90524631       0.72212421      -0.00012932       0.00002855       0.00084241
Al       3.90434348      11.84477177       7.91322091      -2.23819316       0.00331897       0.00111099       0.00045772
Cu       3.83604339      13.82601358       9.85539505       2.19413177       0.00060168      -0.00065799      -0.00046548
Cu       5.75740369      11.75020732       9.94483614       2.35827484       0.00046033       0.00013818      -0.00105045
Al       5.80631126      13.75419022       7.95417765      -2.40743897       0.00081716      -0.00042855       0.00039635
Cu       3.89610128      11.87904660      11.69221128       1.82881412      -0.00012300       0.00028590       0.00062952
Cu       3.80102199      13.82661634      13.66808275       1.90389297       0.00009560      -0.00052951      -0.00021111
Au       5.76933919      11.91792994      13.65262215      -0.56701944       0.00023451      -0.00122932       0.00096742
Au       5.70520509      13.82393352      11.67867167      -1.70604774      -0.00009405      -0.00163836      -0.00006441
Cu       3.79193808      15.68738600       0.00049855       2.11523727      -0.00059228      -0.00029463       0.00024146
Cu       3.86462934      17.55350794       1.94434438       2.42218825      -0.00044514       0.00049105      -0.00010710
Cu       5.82986091      15.78341129       1.98974153       2.88039185       0.00027741      -0.00145492      -0.00015029
Au       5.77554886      17.52234879       0.04768186      -0.55482809       0.00053100       0.00028400       0.00102961
Al       3.86465898      15.77760503       3.96244042      -2.67937892      -0.00029085      -0.00055061       0.00039160
Cu       3.91428534      17.69630675       5.93216062       2.89258081       0.00199027      -0.00049472      -0.00186066
Al       5.82925338      15.69309743       5.84785998      -2.31032403       0.00108383      -0.00040300       0.00099298
Cu       5.78522585      17.69545891       3.91950362       2.59545065       0.00000859       0.00001974       0.00032734
Au       3.82605435      15.72065531       7.86869963      -1.00556839       0.00314937      -0.00096041      -0.00203500
Cu       3.82104986      17.58433096       9.81258361       2.18952148       0.00158474       0.00092353      -0.00103303
Cu       5.69235670      15.76478928       9.86119861       2.22595557       0.00011363      -0.00068174      -0.00103923
Au       5.80347012      17.64075481       7.85057577      -0.26808732      -0.00005792       0.00071839      -0.00122046
Cu       3.79903716      15.71626485      11.69466726       1.54717805       0.00102053       0.00051035      -0.00160468
Au       3.80795820      17.53407466      13.62267396      -1.13568604       0.00031773      -0.00003540       0.00026742
Al       5.77539704      15.64247054      13.66695723      -3.80842187       0.00014360      -0.00016767       0.00016410
Cu       5.78628436      17.51412676      11.71988055       2.48561692      -0.00108862       0.00118037      -0.00019748
Au       7.82272713      -0.03640301       0.00512142       0.17160882       0.00053243       0.00050969       0.00019866
Au       7.76407296       1.88077663       1.99155596      -0.44437615      -0.00049518      -0.00005972      -0.00070466
Cu       9.77401082       0.04736327       1.94172549       2.33256640      -0.00001321       0.00089301      -0.00065373
Cu       9.79241757       1.86128654       0.06710762       2.57387786       0.00127125      -0.00249267      -0.00166205
Cu       7.75210281       0.03422866       3.92234478       2.23023398      -0.00111566      -0.00050355       0.00076240
Cu       7.75872695       1.87642851       5.77761314       2.50796049      -0.00094358      -0.00103092       0.00057962
Al       9.78818184      -0.04213274       5.81426430      -2.56929676      -0.00028085      -0.00170759       0.00093309
Au       9.77348607       1.87818560       3.84246267      -0.64862908       0.00197327      -0.00034442       0.00020858
Al       7.83010662      -0.05439864       7.84674194      -2.28362526      -0.00090542       0.00091186      -0.00031166
Cu       7.84350162       1.94841200       9.79627655       3.44563614      -0.00133260      -0.00100714      -0.00142029
Al       9.80525391      -0.04291312       9.82596113      -1.74915814      -0.00244400      -0.00058515      -0.00079464
Au       9.77063408       1.93414096       7.79304060       0.77232923      -0.00060456      -0.00028629       0.00049631
Au       7.80599950       0.04594188      11.72741704       0.06530805      -0.00296160       0.00000012       0.00130640
Au       7.75124902       1.99741240      13.73598635       0.02893474      -0.00112118      -0.00091836      -0.00066279
Au       9.85267564       0.04593541      13.76873820       0.10182192      -0.00081840      -0.00144663      -0.00084215
Au       9.84728797       2.03748092      11.77886084       0.73384399       0.00013738      -0.00150498      -0.00203320
Al       7.71633011       3.91985707       0.07530055      -2.36517581       0.00186579       0.00060954       0.00016780
Al       7.74731343       5.92445962       1.98177595      -2.51550547       0.00154147       0.00114874      -0.00120629
Al       9.76178944       3.90294762       1.90766723      -2.25583661      -0.00060672      -0.00303203       0.00111502
Au       9.75328201       6.07214599       0.07287023       0.64439093       0.00178332      -0.00034581      -0.00097142
Au       7.73906076       3.83966591       3.92004833       0.01454339       0.00097927       0.00173917      -0.00108012
Au       7.84692515       5.97179621       5.85144022       0.32554495       0.00005123      -0.00034430      -0.00103229
Au       9.80771951       3.90967548       5.79482319      -0.29489998       0.00390156       0.00152132       0.00008660
Au       9.79149999       5.95983956       3.89518185      -0.49174597       0.00177874      -0.00119058       0.00238794
Au       7.81519744       3.84734053       7.77302428       0.73704146       0.00154000      -0.00068911      -0.00103356
Al       7.80994486       5.89688700       9.78472327      -1.29706313       0.00084596      -0.00087277       0.00089924
Al       9.81893988       3.93211599       9.76393147      -2.25138434      -0.00185769       0.00055884       0.00094014
Au       9.87789844       5.95100621       7.74226872       0.63479912       0.00142694      -0.00064473      -0.00036081
Al       7.77611629       3.91658283      11.75310068      -2.34502352       0.00030797      -0.00055854       0.00023336
Au       7.76512498       5.93614157      13.73662609       0.18798796      -0.00014944      -0.00063444       0.00099532
Au       9.79687419       3.92230427      13.86116839       0.51428152      -0.00013782      -0.00242855       0.00031778
Au       9.83625385       5.83502236      11.79284802       1.34619521      -0.00181900      -0.00044326      -0.00048175
Cu       7.71964071       7.87525486      -0.02156491       2.98020246       0.00106125      -0.00034549      -0.00003496
Al       7.84349156       9.82648527       1.99446140      -3.23131368       0.00132872      -0.00102325      -0.00008263
Cu       9.78930861       7.87970670       1.99801931       2.96659928       0.00145840       0.00046921      -0.00065388
Au       9.74395144       9.74569636       0.05551406      -0.83526929      -0.00070808       0.00071647       0.00051697
Cu       7.88557097       7.86375111       3.95311949       3.09867307       0.00280724       0.00083394       0.00020651
Au       7.85955720       9.77277440       5.84723306       0.39087029       0.00060737       0.00196350      -0.00035889
Cu       9.84558559       7.84226173       5.79674643       2.99136960       0.00324260       0.00012488      -0.00243255
Au       9.80306198       9.77197528       3.90871537      -0.89360363       0.00342289      -0.00044839      -0.00184560
Al       7.81904965       7.92681010       7.92316187      -1.87933420      -0.00006698      -0.00055261       0.00074796
Cu       7.73098909       9.92153865       9.91851400       3.03264489      -0.00099901      -0.00121608       0.00036261
Al       9.87001059       7.88206017       9.82051186      -1.77564930      -0.00030480      -0.00010308       0.00101723
Al       9.84974440       9.75086210       7.85166720      -2.20628946       0.00140493       0.00054386       0.00153211
Au       7.74290055       7.93912655      11.71670694       0.13665634       0.00027780      -0.00123829       0.00186562
Au       7.74863899       9.83115470      13.69887633      -0.55299405       0.00044924       0.00067917      -0.00067876
Al       9.79597953       7.87954452      13.69501515      -2.62823692       0.00124837      -0.00044112      -0.00065081
Au       9.82978697       9.89702249      11.74292527       0.53460534       0.00172044      -0.00036162      -0.00081554
Au       7.87002981      11.85660919      -0.04938131      -0.82325865       0.00015183       0.00005820       0.00006709
Al       7.86859783      13.71706387       1.95885641      -2.86912863       0.00016221       0.00031324       0.00031631
Cu       9.83717843      11.77139244       1.99324635       2.66747726       0.00068560       0.00019085      -0.00052647
Cu       9.76629138      13.68044736      -0.05723178       2.59421877      -0.00044225       0.00065681      -0.00047273
Cu       7.87623104      11.80995116       3.94863812       3.05516858       0.00007756       0.00039832      -0.00047063
Cu       7.86669502      13.66795511       5.88725986       3.30372247      -0.00058308       0.00092006       0.00202786
Al       9.81062658      11.73662792       5.91504583      -2.72557674       0.00144235       0.00076944      -0.00010740
Au       9.82176427      13.65700519       3.91071816      -0.03310792      -0.00113129      -0.00016814      -0.00030228
Au       7.78033182      11.76647062       7.95047535       0.49400570       0.00043174       0.00098510       0.00054115
Al       7.75860912      13.79981610       9.85589012      -2.31426812      -0.00036483      -0.00044974       0.00058713
Au       9.86511847      11.79088601       9.77743573       0.50112659      -0.00019374       0.00044747       0.00012581
Au       9.83337333      13.77921895       7.83170265       0.47896943      -0.00047405      -0.00027813       0.00046621
Al       7.78827114      11.85293321      11.78664267      -3.06293196      -0.00036778       0.00002681       0.00034366
Cu       7.83807223      13.77017062      13.76018913       2.51622049      -0.00177834      -0.00062902       0.00027907
Cu       9.77299799      11.72973942      13.79704470       3.06316731      -0.00044265       0.00020100      -0.00117991
Al       9.77989188      13.72597069      11.82478331      -2.03787633      -0.00177154       0.00052797       0.00058859
Au       7.86263025      15.63826757       0.01706565      -0.18769370      -0.00080438      -0.00016535       0.00023643
Au       7.80374459      17.68346521       2.08781051      -0.54356000       0.00151956      -0.00027081      -0.00000245
Al       9.84011696      15.67676461       2.00620586      -2.22895657      -0.00031500       0.00003794       0.00022201
Al       9.78009186      17.63783085       0.02913669      -2.51971288      -0.00002179       0.00094985      -0.00037119
Al       7.83356164      15.68633216       3.92173838      -2.33468979      -0.00017782       0.00017035       0.00070194
Au       7.74559148      17.72817786       5.72779260       0.09518602      -0.00142907      -0.00081274       0.00103340
Al       9.81654752      15.72727808       5.78536164      -2.15833645      -0.00224050      -0.00073859       0.00052287
Cu       9.79634464      17.77138385       3.81150109       3.10862701      -0.00059025      -0.00011299       0.00094867
Au       7.77608454      15.67157470       7.78134428       1.06803152      -0.00252521      -0.00109315       0.00166507
Au       7.73579083      17.47539461       9.92930433       0.24506579      -0.00097401       0.00044522      -0.00014461
Al       9.83645006      15.61770000       9.85587589      -1.95332040      -0.00168441      -0.00069788       0.00076246
Al       9.79657888      17.55927977       7.83110798      -1.54596991      -0.00265250      -0.00133871       0.00078704
Cu       7.73324234      15.61630210      11.83652126       2.94226001      -0.00101978       0.00045698      -0.00045852
Au       7.79934455      17.55113490      13.62765766      -0.22336096      -0.00161283       0.00060952       0.00083406
Cu       9.67858767      15.61168968      13.75334576       3.05879635      -0.00026345       0.00014872       0.00142325
Al       9.85726869      17.54651606      11.82357883      -2.05688323      -0.00200616       0.00054426       0.00037695
Cu      11.71665401       0.12306938       0.04856660       2.54077711       0.00116688      -0.00129542       0.00224054