399
Lattice="19.59262691714357 -0.0029401591670048664 0.00043227724696582155 -0.0029405439160256983 19.594541571232078 0.002722427805357169 0.0003459403246241731 0.002177382872289726 15.670877927394494" Properties=species:S:1:pos:R:3:energies:R:1:forces:R:3 energy=12.146768145482714 free_energy=12.146768145482714 stress="0.00039226586820989367 6.517526547258827e-05 4.56517969854193e-05 6.517526547258827e-05 4.093172696524172e-05 -8.57932736620237e-05 4.56517969854193e-05 -8.57932736620237e-05 0.0007315346684024115" pbc="T T T"
Au      -0.02024582       0.05165422       0.07206137      -1.21913492      -0.00001144       0.00262408       0.00020699
Cu      -0.09365910       1.92391085       1.90552271       2.69865524       0.00287650      -0.00274152      -0.00224763
Cu       2.02991186      -0.03832553       1.95937100       3.20372873       0.00037734       0.00332672       0.00119111
Al       1.95535443       1.94069199       0.12523113      -3.31494093      -0.00100255       0.00124802       0.00019260
Al      -0.06986685      -0.02283676       3.85540706      -2.47003023       0.00000319      -0.00026109       0.00046582
Al      -0.08738823       2.01027451       5.78172106      -1.86313705      -0.00113866      -0.00149571      -0.00077220
Al       1.89461123       0.00404893       5.82126680      -2.18009001       0.00113450       0.00081307       0.00048775
Al       1.86949232       1.92864444       3.78510636      -2.80808878       0.00305740      -0.00262117       0.00089419
Al      -0.08202130      -0.01202856       7.74344986      -2.47490168       0.00195397       0.00061242       0.00162583
Au       0.00209364       1.93143933       9.75586469      -0.02075894      -0.00040213       0.00131027       0.00105431
Cu       1.87011715      -0.10777397       9.80229259       2.18472486       0.00146811       0.00050039       0.00055913
Au       1.94534272       1.90845518       7.86552640      -0.58846282       0.00219527      -0.00028112      -0.00106859
Cu       0.03086250      -0.11550590      11.74650849       2.01279601       0.00132923      -0.00119564      -0.00109056
Cu       0.00390359       1.89173649      13.78671486       2.56605239      -0.00134041      -0.00092910      -0.00135856
Au       1.87449329      -0.03465682      13.67792717      -0.28122985      -0.00121974      -0.00225127       0.00106994
Au       1.89527792       1.86879445      11.69004370      -0.87945632      -0.00020160       0.00152360      -0.00094335
Cu       0.01709151       3.83832966       0.08097761       2.21147551       0.00354583       0.00116531      -0.00241902
Cu      -0.06097914       5.78860695       1.78718974       2.71766482       0.00068985      -0.00225130       0.00057341
Cu       1.85477031       3.86139882       1.93583296       2.83467102       0.00239255       0.00144000      -0.00134766
Au       1.95688439       5.78123037       0.05584513      -0.38773376      -0.00218847       0.00068662       0.00008935
Al      -0.13874871       3.98776600       3.80119668      -2.22851029      -0.00232999       0.00390140       0.00236658
Au      -0.01173788       5.76135362       5.92388045       0.16708691      -0.00530950       0.00083437      -0.00318605
Au       2.01471569       3.79575390       5.80561314       0.33958548       0.00069252       0.00268210       0.00054930
Al       1.93577571       5.76932926       3.82746405      -2.24355595       0.00239110      -0.00230849       0.00060419
Cu       0.11489863       3.88199176       7.82601763       3.34838975      -0.00070637       0.00044230      -0.00100214
Au       0.06042634       5.83415501       9.71373920       0.58138866      -0.00128643      -0.00029317      -0.00110149
Cu       1.96023168       3.83539137       9.79710227       2.85819348       0.00040358       0.00046306      -0.00074629
Al       1.97712455       5.86730309       7.81694535      -3.22368245       0.00084338       0.00124433      -0.00208328
Au       0.01441369       3.90648554      11.77509363       0.30257797      -0.00149223       0.00080481      -0.00001302
Au      -0.03278187       5.84576639      13.84985033       0.38685937      -0.00298037       0.00044418       0.00115465
Au       1.92113060       3.83086776      13.78100908       0.18937848      -0.00138722      -0.00076036      -0.00133441
Al       1.98353389       5.86626740      11.82023512      -2.76526832       0.00036402       0.00037343       0.00004365
Al       0.01992717       7.83229226       0.05649358      -2.96482007       0.00062938      -0.00100754      -0.00096346
Au       0.04439982       9.77381101       2.07175949      -0.09626964      -0.00257412       0.00121611      -0.00146000
Al       1.94287862       7.82419363       1.95300183      -2.41061375       0.00085151       0.00157791      -0.00242080
Cu       1.97995668       9.84507936       0.02094944       3.02314714      -0.00172183      -0.00113712      -0.00048170
Al      -0.03333636       7.64835574       3.90539811      -2.30734044      -0.00589016      -0.00308049       0.00346366
Al       0.04666412       9.71085336       5.89551215      -2.71921493      -0.00036673      -0.00059248      -0.00183398
Cu       1.93894663       7.79033459       5.89400382       3.12846871      -0.00062642       0.00074919      -0.00121737
Cu       1.91921215       9.87510443       3.93824974       3.03806733       0.00093681      -0.00097036       0.00056101
Cu      -0.01317622       7.71944499       7.75228917       3.59243153      -0.00203610       0.00087800      -0.00081822
Al       0.00706218       9.79348813       9.70666212      -2.23232576      -0.00048715      -0.00127460      -0.00227457
Al       2.01226541       7.90462423       9.78649493      -2.20237886      -0.00035891      -0.00052216      -0.00035961
Al       1.97873705       9.77458384       7.88018436      -2.11357866      -0.00013494      -0.00019356      -0.00065893
Al       0.09245498       7.85344515      11.74843484      -2.16087345      -0.00011820       0.00051976       0.00081577
Au       0.17607633       9.79786189      13.68905594       0.02036641      -0.00124769       0.00083187      -0.00053666
Cu       1.97005431       7.81608365      13.78256440       3.08867983      -0.00058938      -0.00048312       0.00000557
Cu       2.02095639       9.92887148      11.72337650       2.94467990       0.00038424      -0.00032186       0.00147866
Al       0.10538822      11.85458893      -0.02540110      -3.03002085      -0.00033776      -0.00106038      -0.00032706
Cu       0.08584378      13.78766296       2.02426153       2.85774214       0.00132008      -0.00208762      -0.00054113
Au       1.88402033      11.79715650       2.00266241      -1.07252240      -0.00044547      -0.00128608      -0.00150777
Cu       1.99073665      13.83994030      -0.06330829       2.20480928       0.00016784       0.00125190      -0.00033059
Cu       0.01557983      11.80119632       3.98350678       2.77680168      -0.00035009       0.00030612      -0.00129266
Au       0.02273630      13.81395343       6.07988599      -1.61139499       0.00068517      -0.00072859      -0.00075176
Au       1.85369842      11.79067075       5.94114238       0.05864098       0.00145412      -0.00186414       0.00145313
Au       1.85718776      13.80858870       3.96626717      -0.40596944       0.00146021      -0.00282985      -0.00074988
Cu       0.03349853      11.88348840       7.88536477       3.24372241      -0.00040864      -0.00265169      -0.00092810
Au      -0.04948363      13.78402818       9.69629634      -2.03098551      -0.00058451       0.00249953      -0.00084012
Au       2.02027370      11.86171073       9.81469196      -1.43209224       0.00313590      -0.00120002      -0.00101734
Cu       1.92241552      13.81838909       7.91890928       2.65382509       0.00017353      -0.00033502       0.00007968
Au       0.01120441      11.79791579      11.65929658      -0.45607896       0.00052682      -0.00060900       0.00253988
Au       0.03904736      13.82494693      13.58955773      -0.67756857       0.00086734       0.00067740      -0.00061313
Au       2.02287133      11.89828458      13.59962933      -1.27699702      -0.00108711      -0.00068511      -0.00090726
Cu       2.03791925      13.78597027      11.71792968       1.97974817       0.00025970       0.00055325       0.00064140
Au       0.06559993      15.60662164      -0.00707261      -0.53218002       0.00103914      -0.00093400       0.00118820
Al      -0.00854174      17.67812228       1.98830675      -2.49115104       0.00067400       0.00163864       0.00071297
Cu       1.90414472      15.66028195       1.92119877       2.70781914       0.00056153      -0.00006639       0.00008600
Au       1.96470600      17.57104124       0.05726259      -1.22892975       0.00052554       0.00005905      -0.00101642
Au       0.00593008      15.78707626       3.97017735      -0.32214835       0.00011431       0.00023183      -0.00034046
Cu      -0.09692349      17.59810903       5.87768361       2.87600288      -0.00099449       0.00245014      -0.00107174
Cu       1.85022143      15.76911763       5.99968909       2.62280146      -0.00036075      -0.00024167       0.00076645
Al       1.96666470      17.65173854       3.93342429      -2.64063113       0.00047047       0.00208919       0.00019275
Cu       0.01714126      15.72796284       7.91502436       2.24015687       0.00072800      -0.00020213      -0.00116540
Cu       0.00044112      17.60383887       9.83001814       2.16572803      -0.00095615       0.00063236      -0.00165184
Au       1.93338885      15.71454810       9.84363047      -2.45629930       0.00253306       0.00038622      -0.00400402
Au       1.84332785      17.64873321       7.84093793      -1.58419707       0.00219921      -0.00435355      -0.00036332
Al      -0.06786390      15.70408219      11.67647907      -4.10914993      -0.00001710      -0.00148966      -0.00040078
Au      -0.00617667      17.58142334      13.65158211      -1.36571274       0.00284048       0.00102957       0.00064208
Cu       1.98489936      15.65585376      13.65686639       1.87426348      -0.00062473      -0.00041579      -0.00084380
Cu       1.90620614      17.62661338      11.69588028       2.00642748       0.00032346       0.00009062      -0.00042122
Au       3.86263730      -0.04700040       0.08198841       0.11826444       0.00300475      -0.00088568      -0.00190358
Cu       3.89819080       1.93871993       2.07258531       2.58130288      -0.00260782       0.00215741       0.00068837
Al       5.79862411      -0.03342778       2.00659041      -3.47809935      -0.00025260       0.00019543      -0.00163410
Al       5.79353696       1.94272928       0.03516243      -2.29247223      -0.00171458      -0.00054669       0.00028181
Au       3.91655779      -0.01943091       3.91881985      -1.44298481      -0.00145156      -0.00029483       0.00054778
Cu       3.93543143       1.86728858       5.83990648       2.66526786       0.00088105       0.00114327       0.00029995
Cu       5.80434236      -0.01220670       5.78871014       1.87615806      -0.00158142       0.00048775       0.00027794
Cu       5.80964398       1.88329975       3.95786393       1.75609603       0.00050030       0.00175833       0.00005753
Au       3.85401391      -0.03554088       7.86510197      -0.98785675       0.00058348       0.00193876       0.00108513
Cu       3.82142137       1.92792914       9.79297876       2.86324880       0.00126111       0.00154451      -0.00028415
Al       5.83144851       0.00478749       9.84495748      -2.96151952       0.00146537       0.00023019      -0.00003933
Au       5.87085257       1.84555186       7.75807698      -0.28637254       0.00019232      -0.00164691       0.00119137
Al       3.87047418      -0.06036422      11.65445472      -3.29294345       0.00038627      -0.00020977       0.00039019
Al       3.92056321       1.90465451      13.70548690      -2.31238123      -0.00163689      -0.00015502      -0.00101187
Au       5.81747431      -0.09849896      13.64173917       0.26867262      -0.00431560      -0.00240847       0.00212983
Cu       5.86924529       1.95707013      11.78006053       3.12579896      -0.00044088      -0.00025428      -0.00084035
Al       3.94180214       3.84818956       0.07609240      -2.52340057      -0.00048391      -0.00041414      -0.00032974
Al       3.91989837       5.77236571       2.01182461      -2.26403467      -0.00211259       0.00020738       0.00037546
Cu       5.78503996       3.73762989       2.12078787       2.96305289      -0.00070144       0.00087469      -0.00146500
Au       5.78817439       5.90174932      -0.05531304      -0.21015634      -0.00096676       0.00148934      -0.00089496
Cu       3.89384852       3.72439396       3.87944656       2.40836726       0.00029662       0.00079418      -0.00123284
Au       3.83893657       5.90296555       5.83514474       0.53028235      -0.00304243      -0.00052204       0.00174143
Al       5.78281467       3.86758590       5.82722879      -3.01704151       0.00077043       0.00147037       0.00120409
Al       5.81131619       5.87685955       3.90460563      -2.36840377       0.00031798       0.00069931      -0.00078514
Au       3.89088511       3.80882595       7.86706964       0.11431698       0.00016042       0.00144540      -0.00124744
Au       3.86864530       5.86262774       9.79490642       0.99172650       0.00192280       0.00049342      -0.00051020
Al       5.87256615       3.81128705       9.80145417      -2.35985244       0.00065448       0.00035251       0.00135598
Al       5.84185840       5.88133472       7.84836180      -2.05196805       0.00145881      -0.00030483       0.00036382
Au       3.91100553       3.82815933      11.75420034      -0.30482046      -0.00084362       0.00003294       0.00096888
Cu       3.87943346       5.88268162      13.76129236       2.77275779      -0.00118376       0.00063641       0.00048793
Cu       5.79502232       3.95092090      13.67650916       3.26921122       0.00166020       0.00016676      -0.00027781
Al       5.79480716       5.90213646      11.78578077      -2.60934564       0.00131380      -0.00055404       0.00033667
Au       3.83849266       7.87928862      -0.06238287      -0.78431227      -0.00210460      -0.00101010      -0.00095731
Cu       3.81337412       9.86206915       1.91704451       2.80736276       0.00089119      -0.00110937      -0.00014387
Au       5.80658423       7.90379485       1.96152805       0.53259679       0.00033027      -0.00143383      -0.00066882
Au       5.81854505       9.83068114      -0.01715946      -0.32254280      -0.00026884       0.00177282      -0.00032247
Au       3.76905423       7.96494648       3.91976277       0.48020055       0.00100228       0.00096519      -0.00201988
Al       3.83490967       9.82929311       5.93798296      -2.30936901      -0.00025177       0.00055417       0.00019929
Au       5.81866932       7.87633187       5.88252651       0.92303383       0.00265407       0.00145047       0.00134577
Al       5.86968341       9.83078655       3.91276400      -2.72078341       0.00051782      -0.00076932       0.00102265
Cu       3.90256626       7.82446598       7.81738540       3.46182374       0.00060099       0.00116402       0.00029930
Cu       3.90282772       9.91388928       9.97724600       2.42381186       0.00085717      -0.00040524       0.00037429
Au       5.72144020       7.98836936       9.82369315      -0.03217890       0.00166536       0.00013043       0.00063147
Al       5.77516077       9.87922348       7.90948321      -2.53743280       0.00220716      -0.00165394      -0.00039327
Au       3.86312079       7.92042502      11.87810192      -0.67609264      -0.00010469      -0.00022676       0.00143602
Al       3.86678565       9.88659685      13.67518606      -3.72455344       0.00030496       0.00022065       0.00140984
Cu       5.84542560       7.88070924      13.73370252       2.71946695       0.00115393       0.00012051       0.00052939
Cu       5.79736500       9.87704955      11.74810896       2.19654346       0.00111584       0.00146072       0.00027564
Au       3.79853835      11.84741786       0.01577725      -0.61485873       0.00214230      -0.00007552      -0.00015449
Al       3.84716837      13.85069507       1.99109045      -3.25804485       0.00082705      -0.00009691      -0.00092202
Au       5.83916218      11.77557731       1.96378938       0.49780770       0.00152935      -0.00021880      -0.00345890
Au       5.76738567      13.84302841       0.00848714      -0.28441040      -0.00056277      -0.00086772      -0.00078805
Au       3.84013770      11.74453536       3.92724907       0.36516760      -0.00092350      -0.00244407       0.00086731
Al       3.82583015      13.77504196       5.91350671      -2.21642087      -0.00090052      -0.00271542      -0.00134467
Au       5.93453555      11.83161877       5.86372875       0.75812776       0.00100114      -0.00159846      -0.00015131
Au       5.91157425      13.74882989       3.90501173       0.72210175       0.00010767       0.00080591       0.00034052
Al       3.89940611      11.84325247       7.90904035      -2.23941480       0.00005264      -0.00119731       0.00006291
Cu       3.83392437      13.82509808       9.85346381       2.19205590      -0.00009121      -0.00015941      -0.00056620
Cu       5.75312040      11.75302053       9.94155461       2.35928100       0.00041260       0.00005317      -0.00081496
Al       5.80264102      13.75515591       7.95188404      -2.41116266       0.00006516      -0.00182769       0.00140742
Cu       3.89382275      11.87972180      11.69025437       1.82705786      -0.00052902      -0.00018589      -0.00039826
Cu       3.79879943      13.82756012      13.66899125       1.90532171       0.00074353       0.00080731      -0.00160576
Au       5.76554393      11.92053017      13.65267293      -0.56758795      -0.00051206       0.00008044       0.00063389
Au       5.70277367      13.82477331      11.67766143      -1.70537427      -0.00087736       0.00131978      -0.00182838
Cu       3.79105338      15.68537299       0.00201806       2.11869753       0.00032851       0.00014873       0.00048618
Cu       3.86354105      17.55297650       1.94607390       2.42455529      -0.00024683       0.00038526       0.00021992
Cu       5.82693402      15.78185521       1.99068008       2.88114769      -0.00104550      -0.00179818       0.00134350
Au       5.77564377      17.52010348       0.04935579      -0.55482525      -0.00238860       0.00332793      -0.00204378
Al       3.86235010      15.77475875       3.96189598      -2.67932777      -0.00106753      -0.00125689       0.00044618
Cu       3.91306595      17.69566043       5.93185538       2.89401841       0.00128809      -0.00039323      -0.00120843
Al       5.82575285      15.69204176       5.84717511      -2.31305755       0.00121309      -0.00048743       0.00028508
Cu       5.78217717      17.69488271       3.91972505       2.58955030      -0.00137994      -0.00011149       0.00043557
Au       3.82401895      15.71982676       7.86756061      -1.00749565      -0.00296901       0.00022260       0.00191268
Cu       3.81939430      17.58264577       9.81223123       2.19123428      -0.00049090      -0.00090355      -0.00050133
Cu       5.69095400      15.76451968       9.85944547       2.22855818      -0.00108837      -0.00011178       0.00031245
Au       5.80177340      17.63941740       7.84949878      -0.26952402       0.00122060       0.00011806       0.00009651
Cu       3.79729916      15.71573392      11.69353597       1.54875727      -0.00023870      -0.00125191      -0.00348516
Au       3.80872317      17.53083918      13.62162400      -1.13518235       0.00064259       0.00276683       0.00196980
Al       5.77511316      15.64155927      13.66767820      -3.80833478       0.00132075      -0.00102413      -0.00127189
Cu       5.78657546      17.51229631      11.71935204       2.48640996      -0.00039931      -0.00053407      -0.00064086
Au       7.82336741      -0.03873515       0.00415119       0.16787326      -0.00136095      -0.00050092       0.00114289
Au       7.76296707       1.87854251       1.99055095      -0.44121099      -0.00101454      -0.00118750       0.00041702
Cu       9.77313149       0.04650110       1.93975037       2.33281936      -0.00114504      -0.00085141       0.00092905
Cu       9.78997706       1.85972090       0.06274023       2.57841755       0.00027798      -0.00082604       0.00067810
Cu       7.74914760       0.03154993       3.92345383       2.23413799      -0.00066576       0.00002582       0.00053425
Cu       7.75606658       1.87347892       5.78000283       2.50834253      -0.00069511      -0.00029958       0.00121454
Al       9.78764574      -0.04640203       5.81871011      -2.56419264      -0.00080755      -0.00079776       0.00138158
Au       9.76613802       1.87168911       3.84700010      -0.65802758      -0.00181499      -0.00033243      -0.00007808
Al       7.82977633      -0.05711754       7.84751004      -2.28468497      -0.00038859       0.00089577       0.00099261
Cu       7.84294027       1.94508331       9.79693133       3.44745092       0.00001965      -0.00073233       0.00084899
Al       9.80727008      -0.04561417       9.82738195      -1.74983822      -0.00039977       0.00007398       0.00057636
Au       9.77023421       1.93179994       7.79837513       0.77285226       0.00101517      -0.00317531      -0.00047235
Au       7.80637131       0.04306782      11.72715926       0.06280792       0.00042242      -0.00171182      -0.00196660
Au       7.75021882       1.99404891      13.73369752       0.02515787       0.00128897       0.00116316       0.00100419
Au       9.85509957       0.04586942      13.76686107       0.09842639      -0.00135447      -0.00178091       0.00071754
Au       9.84949077       2.03550505      11.77676738       0.73674537      -0.00018754      -0.00069602      -0.00050089
Al       7.71503609       3.91789124       0.07179652      -2.36615185       0.00105915       0.00067477       0.00060672
Al       7.74564775       5.92283583       1.97966615      -2.51268960       0.00028289       0.00175787      -0.00095494
Al       9.75451010       3.90057208       1.90572743      -2.25703080       0.00155010      -0.00087934      -0.00065991
Au       9.75012772       6.07356367       0.06898535       0.64364461       0.00151012      -0.00033097      -0.00018564
Au       7.73668599       3.83799384       3.92030740       0.01252748      -0.00001014       0.00006263       0.00155019
Au       7.84228552       5.97044936       5.85409044       0.32931962      -0.00026223      -0.00091055       0.00147706
Au       9.79825325       3.90651755       5.80261455      -0.29448938       0.00030180      -0.00041220      -0.00235649
Au       9.78314338       5.96016607       3.89662168      -0.49084668       0.00019157      -0.00015654       0.00039215
Au       7.81194721       3.84473664       7.77747709       0.73893396       0.00007169       0.00109476       0.00087440
Al       7.80935944       5.89693406       9.78420825      -1.29856355       0.00033435      -0.00192107       0.00076133
Al       9.82087250       3.93166887       9.76304005      -2.24934924      -0.00036210      -0.00231676       0.00007554
Au       9.87550174       5.94957960       7.74397504       0.63448581       0.00082555       0.00202295      -0.00059537
Al       7.77682803       3.91434196      11.75104189      -2.34726277      -0.00005879      -0.00062266      -0.00001359
Au       7.76414943       5.93638027      13.73360819       0.18884915       0.00266661      -0.00097731       0.00091805
Au       9.79276833       3.92081673      13.85512858       0.52004957       0.00276774       0.00027003       0.00123111
Au       9.83483917       5.83524574      11.78767824       1.35379039       0.00074699      -0.00160386       0.00068089
Cu       7.71792977       7.87652297      -0.02509187       2.97709821       0.00231155       0.00129201       0.00079946
Al       7.84221543       9.83067521       1.99261849      -3.23121134      -0.00034601       0.00056283      -0.00150774
Cu       9.78174193       7.88255868       1.99433136       2.95348106       0.00133740       0.00021896       0.00161137
Au       9.73441230       9.75138712       0.04641485      -0.83501330       0.00023471       0.00123096       0.00040374
Cu       7.88278341       7.86550962       3.95399853       3.09476352      -0.00021889       0.00004321       0.00021830
Au       7.85577706       9.77798778       5.85018415       0.39572920      -0.00148565      -0.00138741       0.00142714
Cu       9.83624980       7.84393410       5.80005616       2.99473455       0.00156770       0.00051573       0.00171790
Au       9.79312742       9.77876968       3.91084468      -0.88179052       0.00104138       0.00222241      -0.00072699
Al       7.81623255       7.92797453       7.92354048      -1.88401458       0.00163637      -0.00049297      -0.00036494
Cu       7.72669638       9.92451750       9.91567331       3.03656204       0.00123166       0.00058784       0.00062032
Al       9.86587235       7.88301525       9.81702951      -1.77221141       0.00110580      -0.00184148      -0.00258758
Al       9.84714571       9.75319473       7.85220509      -2.21072084       0.00051033       0.00111881       0.00041368
Au       7.74116500       7.94106432      11.71433212       0.14115720       0.00154760      -0.00011766       0.00136004
Au       7.74444194       9.83583575      13.69357888      -0.55494473       0.00085758       0.00137296       0.00106908
Al       9.79274791       7.88184487      13.68774768      -2.63260905       0.00026602       0.00008272       0.00103407
Au       9.82412561       9.90164393      11.73519535       0.53610231      -0.00070506      -0.00004792      -0.00070477
Au       7.86620958      11.86209695      -0.05030186      -0.82597663      -0.00044737      -0.00024384      -0.00036984
Al       7.86561952      13.71977610       1.96063808      -2.87270802      -0.00050886       0.00082987      -0.00065232
Cu       9.83237460      11.77858115       1.99040220       2.67163245      -0.00046208       0.00138580       0.00097470
Cu       9.76399017      13.68488028      -0.05750103       2.59771731      -0.00059688       0.00094719      -0.00131693
Cu       7.87280721      11.81413170       3.94922006       3.05905681       0.00049970       0.00047534       0.00015342
Cu       7.86387672      13.66909266       5.88616877       3.30335928      -0.00066393       0.00121682       0.00139932
Al       9.80926078      11.74021016       5.91663031      -2.72644144      -0.00064378       0.00148937       0.00147591
Au       9.82128810      13.65868985       3.91112892      -0.03153321      -0.00140156       0.00083047      -0.00012671
Au       7.77710380      11.77074411       7.94886094       0.49261871       0.00080820       0.00123200       0.00133084
Al       7.75637287      13.80323208       9.85316466      -2.31579831      -0.00035690       0.00095991       0.00108291
Au       9.86345543      11.79558233       9.77231987       0.50869090       0.00014775       0.00276374      -0.00100108
Au       9.83403582      13.78259674       7.82835874       0.48249750       0.00056652       0.00084174       0.00201133
Al       7.78359372      11.85701393      11.78236306      -3.06621910       0.00008284       0.00158352       0.00013669
Cu       7.83579733      13.77213122      13.75883797       2.51616980      -0.00070636       0.00157899      -0.00154003
Cu       9.76575471      11.73745147      13.79125842       3.06355109       0.00000594       0.00202068       0.00025657
Al       9.77725704      13.72961889      11.82189795      -2.03867081       0.00032825       0.00131598       0.00094236
Au       7.86162459      15.63833321       0.01812881      -0.18970213       0.00078478      -0.00058258      -0.00108816
Au       7.80321589      17.68243352       2.08789597      -0.54171294       0.00021915       0.00001589       0.00014184
Al       9.84192252      15.67774255       2.00702702      -2.23000232      -0.00092032      -0.00006586      -0.00103625
Al       9.78230518      17.63744118       0.02804575      -2.52051343      -0.00074572      -0.00052114      -0.00039639
Al       7.83162988      15.68598435       3.92204700      -2.33528555      -0.00145395      -0.00025071       0.00014857
Au       7.74377071      17.72631914       5.72780827       0.09503493      -0.00145575       0.00056391       0.00107451
Al       9.81758922      15.72894913       5.78316407      -2.15737379      -0.00198535      -0.00064004       0.00065466
Cu       9.79601185      17.77199229       3.81117870       3.10749871      -0.00108595       0.00029877       0.00095291
Au       7.77510117      15.67173636       7.77868931       1.06631360      -0.00149191      -0.00053706       0.00199452
Au       7.73617502      17.47372365       9.92793421       0.24552921      -0.00008069      -0.00070713       0.00122302
Al       9.83844693      15.61822526       9.85414274      -1.95004052      -0.00176775       0.00046304       0.00264505
Al       9.79862366      17.55730680       7.83212865      -1.54488726      -0.00084201      -0.00056668       0.00154442
Cu       7.73187465      15.61715547      11.83558292       2.94323791      -0.00035603      -0.00055809       0.00011052
Au       7.80034581      17.54983110      13.62806581      -0.22491563      -0.00135895      -0.00055768      -0.00026805
Cu       9.67902865      15.61214102      13.75409162       3.05699821      -0.00055592      -0.00002218      -0.00047764
Al       9.85980198      17.54601240      11.82434638      -2.05572883      -0.00094263      -0.00066572       0.00089947
Cu      11.71812605       0.12350237       0.04682491       2.54566310       0.00056159      -0.00000290       0.00020423