399
Lattice="19.59262691714357 -0.0029401591670048664 0.00043227724696582155 -0.0029405439160256983 19.594541571232078 0.002722427805357169 0.0003459403246241731 0.002177382872289726 15.670877927394494" Properties=species:S:1:pos:R:3:energies:R:1:forces:R:3 energy=11.936562349039656 free_energy=11.936562349039656 stress="0.0001577678833450364 -1.441168977463082e-05 -0.00016910103178219009 -1.441168977463082e-05 -0.00037981105980686267 -0.00011229116449878472 -0.00016910103178219009 -0.00011229116449878472 0.00038213528341726115" pbc="T T T"
Au      -0.01812256       0.04281557       0.06313572      -1.22746387      -0.00015644      -0.00006486       0.00190561
Cu      -0.08332339       1.90048131       1.89504486       2.72858501      -0.00087275       0.00043464      -0.00035252
Cu       2.03349064      -0.04605413       1.95170821       3.21144843       0.00160326       0.00069656      -0.00098603
Al       1.95929723       1.93591123       0.11853503      -3.31709981       0.00044006      -0.00020966       0.00024157
Al      -0.07090464      -0.02095638       3.85478768      -2.47329298       0.00001529      -0.00095135       0.00069770
Al      -0.07857376       1.97449108       5.79638251      -1.88247902       0.00136472       0.00054662       0.00008703
Al       1.90518919      -0.00653433       5.82743687      -2.19103393      -0.00037646      -0.00234635       0.00030523
Al       1.90348600       1.88996842       3.78755973      -2.80899338       0.00000727       0.00136494       0.00026947
Al      -0.07558843      -0.01841672       7.75540115      -2.47797396       0.00132748      -0.00233620      -0.00103219
Au       0.00297708       1.93123604       9.76003209      -0.01831664       0.00185517      -0.00038382      -0.00137372
Cu       1.87370304      -0.10947635       9.80741918       2.18700603       0.00112886       0.00051448      -0.00040324
Au       1.95111237       1.90243784       7.87293986      -0.58789038      -0.00062346       0.00026016      -0.00035251
Cu       0.03087387      -0.11674647      11.74713264       2.00892411       0.00129754       0.00055433       0.00036245
Cu       0.00535757       1.89100517      13.78587610       2.56629548       0.00173729       0.00044724       0.00017757
Au       1.87683023      -0.03871729      13.67459093      -0.28327509       0.00169266       0.00145914       0.00007475
Au       1.89618046       1.87123371      11.69319436      -0.87723276       0.00047037       0.00014941       0.00084346
Cu       0.02604231       3.84478126       0.09450369       2.23509470      -0.00084159       0.00107392       0.00175449
Cu      -0.08995165       5.79249079       1.86072305       2.75957862      -0.00056277       0.00000518       0.00087575
Cu       1.88099875       3.84592148       1.93660249       2.87029568      -0.00047814       0.00068841       0.00129994
Au       1.93526978       5.78211336       0.07902428      -0.35561921      -0.00146621       0.00110378       0.00221636
Al      -0.05263199       3.86636531       3.80152545      -2.52074086      -0.00071403       0.00005113      -0.00016950
Au       0.00199200       5.76779612       5.91434497       0.14091604      -0.00179734      -0.00040561       0.00241782
Au       2.02290023       3.78002538       5.80760076       0.33300007      -0.00006754       0.00046443      -0.00081626
Al       1.90608513       5.77407332       3.82491699      -2.29514743       0.00092490       0.00000807       0.00051251
Cu       0.11398757       3.87282574       7.81929241       3.31825726       0.00048671       0.00028694      -0.00008333
Au       0.05783030       5.83150215       9.71096990       0.58819792       0.00278121      -0.00041040       0.00001789
Cu       1.96066024       3.83386990       9.79835824       2.86036989       0.00045282       0.00075531      -0.00025228
Al       1.98032140       5.85876139       7.82131744      -3.21783479      -0.00042869       0.00160420      -0.00068222
Au       0.01292642       3.90789235      11.77745945       0.30405325       0.00154977       0.00061908       0.00029499
Au      -0.02904255       5.85158477      13.84708467       0.38352356      -0.00017016       0.00205849       0.00052821
Au       1.91884993       3.83718864      13.78671876       0.18331655       0.00012215       0.00151749       0.00099289
Al       1.98408454       5.86564662      11.81755569      -2.76022836      -0.00023923       0.00070584       0.00075040
Al       0.00913573       7.83121631       0.07409177      -2.95130407       0.00024405      -0.00234794      -0.00073463
Au       0.03117618       9.79623427       2.07524063      -0.06457699      -0.00228816      -0.00137932      -0.00163765
Al       1.93658648       7.83872801       1.95168540      -2.40420641       0.00066299      -0.00061956       0.00181896
Cu       1.97745178       9.84879791       0.02379895       3.01968885       0.00040863      -0.00001038      -0.00019994
Al       0.04624042       7.77202916       3.96127049      -2.58932283      -0.00113661       0.00172785      -0.00135591
Al       0.04756383       9.75525353       5.92805339      -2.71102955      -0.00168946      -0.00010849       0.00047720
Cu       1.95664748       7.80816925       5.92863615       3.14442503      -0.00063819       0.00196832      -0.00008191
Cu       1.92754331       9.90269326       3.93947536       3.08281438      -0.00212657       0.00024759       0.00352383
Cu      -0.00271819       7.73338072       7.76332709       3.56517034      -0.00007888      -0.00063632      -0.00058734
Al       0.01459837       9.79882104       9.70849050      -2.23762615      -0.00060778      -0.00045736      -0.00161102
Al       2.01654963       7.90278702       9.78613042      -2.20901351       0.00009075       0.00098096      -0.00054916
Al       1.99469179       9.78821745       7.89278157      -2.12707495      -0.00011395       0.00091300      -0.00047345
Al       0.09613070       7.85391653      11.74536953      -2.16070043      -0.00029668       0.00124265      -0.00119652
Au       0.17655092       9.79610398      13.69494930       0.01235955       0.00045568      -0.00058078       0.00089175
Cu       1.96548429       7.81294416      13.78938649       3.07849691      -0.00074715       0.00001835       0.00123065
Cu       2.02280898       9.92917473      11.72758687       2.94141622       0.00019767       0.00001121      -0.00068386
Al       0.09664839      11.85622266      -0.01773886      -3.02681005       0.00069320       0.00173368       0.00195609
Cu       0.07749429      13.78166671       2.03113812       2.85152778      -0.00072965       0.00198683      -0.00105792
Au       1.88750891      11.80359723       1.99931231      -1.08022291       0.00055322       0.00222115       0.00030778
Cu       1.99030996      13.83919256      -0.06157520       2.20688013       0.00121756      -0.00019427       0.00106431
Cu       0.01254483      11.80920394       3.98641962       2.75717156       0.00172279      -0.00020330      -0.00017227
Au       0.02299381      13.81471441       6.07536649      -1.61163437      -0.00358470      -0.00119554       0.00176302
Au       1.86502782      11.80392587       5.94691498       0.07363767       0.00019801      -0.00011536      -0.00041841
Au       1.86034465      13.81055602       3.96425916      -0.40912114       0.00031086       0.00186023       0.00034577
Cu       0.03411017      11.89533304       7.88999637       3.24112748      -0.00102045       0.00165788      -0.00134724
Au      -0.04253972      13.79087164       9.70411284      -2.02949289      -0.00018740      -0.00227841       0.00008027
Au       2.02523021      11.86684254       9.81789948      -1.42803898      -0.00188420       0.00131795       0.00074664
Cu       1.92334172      13.82282098       7.91852220       2.65113275       0.00078324      -0.00137772       0.00061676
Au       0.01919246      11.80025988      11.66631953      -0.45613748      -0.00053182       0.00138503      -0.00094023
Au       0.04039657      13.82594815      13.59542784      -0.68592821       0.00107944      -0.00022059      -0.00054761
Au       2.02306757      11.89777477      13.60718465      -1.27614935       0.00228916       0.00010534       0.00050304
Cu       2.04089594      13.78741586      11.72317951       1.97918134       0.00065067      -0.00063652      -0.00031474
Au       0.06176798      15.60364350      -0.00157580      -0.52611030       0.00238885       0.00239938      -0.00000920
Al      -0.01054987      17.67987429       1.98786581      -2.49540916       0.00097419       0.00011573      -0.00029160
Cu       1.90207769      15.65686441       1.92071314       2.71389150       0.00123499       0.00125927       0.00085650
Au       1.96545487      17.56619114       0.05609271      -1.24198871       0.00135006      -0.00025497       0.00115366
Au       0.00685691      15.78712330       3.96664689      -0.31540802       0.00101548      -0.00173117      -0.00057817
Cu      -0.09041965      17.60565170       5.87549681       2.88570134       0.00026233       0.00016721       0.00215159
Cu       1.84993404      15.77039838       5.99859928       2.61824319       0.00223347       0.00076984      -0.00051749
Al       1.96681589      17.65289201       3.92964999      -2.63866021      -0.00016391      -0.00097864       0.00110137
Cu       0.01996279      15.72817374       7.91630240       2.23956009       0.00060330       0.00165868      -0.00100115
Cu       0.00188277      17.60296512       9.83334254       2.16704099       0.00108071      -0.00184901      -0.00039018
Au       1.93821577      15.71614234       9.84611932      -2.45988587      -0.00058795      -0.00015360       0.00163972
Au       1.84757589      17.64543240       7.84446180      -1.57578470       0.00059320       0.00145601      -0.00010305
Al      -0.06313383      15.70444972      11.68079435      -4.11657783       0.00127397       0.00080754       0.00076373
Au      -0.00600060      17.57786600      13.65261112      -1.36235974      -0.00006833      -0.00104748      -0.00104373
Cu       1.98597477      15.65535244      13.65898562       1.87703799       0.00176671      -0.00035506       0.00098514
Cu       1.90861703      17.62586090      11.69763241       2.01435943       0.00122138      -0.00068719      -0.00056349
Au       3.86663096      -0.05152656       0.07826154       0.11363507      -0.00149262       0.00079329       0.00017733
Cu       3.90725110       1.93385702       2.06639016       2.58615499       0.00061642       0.00059803      -0.00034437
Al       5.80318853      -0.03781352       2.00296617      -3.47628214      -0.00002472      -0.00051848       0.00019640
Al       5.79291137       1.94468202       0.03521153      -2.30019469      -0.00118778       0.00079560       0.00051436
Au       3.92888019      -0.03361798       3.91745940      -1.42598448       0.00028647      -0.00055913      -0.00010141
Cu       3.94378128       1.85814646       5.84161433       2.67290750      -0.00042182       0.00112590      -0.00016281
Cu       5.81051237      -0.01695592       5.79058257       1.87840631      -0.00048310       0.00010754       0.00059953
Cu       5.81007154       1.88158385       3.95607224       1.75624582      -0.00040172       0.00128706      -0.00071305
Au       3.86012501      -0.03969943       7.86951809      -0.98039988      -0.00027899      -0.00152921       0.00011567
Cu       3.82627754       1.92776658       9.79792918       2.86371264       0.00000303       0.00078008       0.00029559
Al       5.83482223       0.00105454       9.84547324      -2.96615985      -0.00162588      -0.00013327      -0.00034799
Au       5.87434871       1.84295692       7.76008106      -0.29356807      -0.00112293       0.00180821       0.00056952
Al       3.87281737      -0.06066512      11.65523318      -3.29904479       0.00080230       0.00051811      -0.00034020
Al       3.92032427       1.90613106      13.70603245      -2.31182845      -0.00064565       0.00059210       0.00066268
Au       5.81769073      -0.09955591      13.64185181       0.26883181       0.00123652       0.00127299      -0.00116172
Cu       5.86872432       1.95562005      11.77946289       3.12525730      -0.00090847      -0.00045260       0.00020198
Al       3.93952991       3.85514633       0.07566337      -2.54008219      -0.00045833       0.00081272       0.00061538
Al       3.91184258       5.77838806       2.01898591      -2.27031246      -0.00050675       0.00194107       0.00094196
Cu       5.78395646       3.74147758       2.11981958       2.95508865      -0.00026545       0.00067608       0.00035375
Au       5.78731492       5.90313228      -0.05154350      -0.21152456       0.00045725      -0.00012006       0.00041706
Cu       3.88989540       3.72381437       3.87489539       2.40434591      -0.00011694       0.00096835      -0.00053931
Au       3.83039476       5.89847602       5.82727550       0.52675083      -0.00085087       0.00159755      -0.00002626
Al       5.77970392       3.86685845       5.82535761      -3.01429361      -0.00029100       0.00164656       0.00027669
Al       5.81020178       5.87874056       3.90500164      -2.36375624      -0.00092689       0.00024885      -0.00018606
Au       3.89448349       3.80532891       7.86886188       0.12250833       0.00071523       0.00210450       0.00006882
Au       3.87260854       5.86058836       9.79675628       0.99819889      -0.00095597       0.00130157      -0.00132960
Al       5.87331671       3.81153733       9.80281036      -2.36117966      -0.00081657       0.00043816      -0.00054824
Al       5.83857564       5.88129449       7.84387331      -2.05382545       0.00044105      -0.00014976      -0.00137013
Au       3.91131028       3.82948038      11.75835059      -0.29961671      -0.00059054       0.00039877       0.00021499
Cu       3.87122933       5.88325295      13.76917609       2.76291607      -0.00089570       0.00043706       0.00035952
Cu       5.79608542       3.95217960      13.67926777       3.27304131      -0.00135840       0.00025236       0.00025394
Al       5.79422562       5.90300359      11.78989576      -2.60751890      -0.00102760       0.00036689      -0.00070428
Au       3.83370616       7.87622147      -0.05924491      -0.78437287       0.00009256       0.00040248       0.00246909
Cu       3.81511313       9.86476442       1.91738803       2.80911541      -0.00020900       0.00041061       0.00110688
Au       5.80206963       7.90404601       1.96496876       0.53593920       0.00077063      -0.00099556       0.00062495
Au       5.81898300       9.82826230      -0.01471142      -0.32941302      -0.00080825      -0.00059990      -0.00036269
Au       3.75596275       7.96804753       3.92380095       0.48553143      -0.00057193       0.00185074       0.00009437
Al       3.84032700       9.83864141       5.93926659      -2.31575490       0.00036866       0.00130465       0.00018094
Au       5.81246730       7.87532572       5.88141123       0.92089081       0.00022771      -0.00087624      -0.00117347
Al       5.86524456       9.83000430       3.91328049      -2.71833170       0.00160009      -0.00034773       0.00071590
Cu       3.90366424       7.82275726       7.81729097       3.45448563      -0.00062480       0.00126115       0.00026526
Cu       3.90506029       9.91577380       9.98257257       2.42717298      -0.00031232      -0.00016399      -0.00025868
Au       5.72040346       7.98829953       9.82358531      -0.03282010      -0.00044813       0.00017937      -0.00028377
Al       5.77439024       9.87958964       7.91040874      -2.53720246       0.00014699      -0.00033466      -0.00064052
Au       3.86274772       7.91932534      11.88203245      -0.66744719      -0.00052014       0.00072017      -0.00036475
Al       3.86722610       9.88507688      13.67891573      -3.72020063      -0.00021416      -0.00072082       0.00116949
Cu       5.84502545       7.88028433      13.73673084       2.72143278      -0.00095649       0.00022607       0.00035833
Cu       5.79771989       9.87779487      11.74750499       2.19773899      -0.00112681       0.00006468       0.00061007
Au       3.80400833      11.84847212       0.01639994      -0.61137138      -0.00195241      -0.00072473       0.00107885
Al       3.85190989      13.85483947       1.98920705      -3.26267955       0.00103901      -0.00085620       0.00154537
Au       5.84423845      11.77598546       1.96350667       0.49653456      -0.00045152       0.00146283       0.00110898
Au       5.77005133      13.84411539       0.00752418      -0.28486243       0.00056929      -0.00065790       0.00005019
Au       3.84729343      11.75413912       3.92494316       0.35646659       0.00025164      -0.00114749       0.00142536
Al       3.83139233      13.78104865       5.91276658      -2.21623799       0.00061620      -0.00066411       0.00080664
Au       5.93660362      11.83449190       5.86395303       0.75692205       0.00253499      -0.00214202      -0.00028673
Au       5.91611190      13.75218772       3.90455555       0.72107702       0.00080063      -0.00169770      -0.00136566
Al       3.90705612      11.85147188       7.91326386      -2.24293499      -0.00093806      -0.00050825      -0.00017735
Cu       3.83641406      13.82766955       9.85530295       2.20313701       0.00106866      -0.00134655      -0.00076479
Cu       5.75445057      11.75386607       9.94191778       2.36690615      -0.00051233      -0.00076717       0.00102395
Al       5.80760986      13.75660149       7.95314845      -2.40979675      -0.00003126      -0.00114415      -0.00094205
Cu       3.89446059      11.88151761      11.69438191       1.82774537       0.00178714      -0.00140428      -0.00056853
Cu       3.80084342      13.82768277      13.66977557       1.90217331      -0.00021135      -0.00153314       0.00056539
Au       5.76708096      11.92049335      13.65174379      -0.57376799      -0.00093230      -0.00070029       0.00027084
Au       5.70642653      13.82421072      11.67607639      -1.71164592      -0.00014871      -0.00123565       0.00063548
Cu       3.79249039      15.68338771       0.00014992       2.12514376       0.00095955       0.00001129       0.00015744
Cu       3.86586238      17.54820259       1.94332921       2.42893199       0.00081240      -0.00043021      -0.00043407
Cu       5.83181308      15.78128167       1.99230413       2.88497489       0.00103136      -0.00038514      -0.00118763
Au       5.77781223      17.51697232       0.04796515      -0.55436741       0.00151701      -0.00257977       0.00039400
Al       3.86372401      15.77674428       3.96180358      -2.68306815       0.00146418      -0.00049999       0.00029961
Cu       3.91842883      17.69105276       5.93339096       2.90141717       0.00072763      -0.00055826       0.00024322
Al       5.83143330      15.69120787       5.84743701      -2.31684250      -0.00005655      -0.00137715       0.00072345
Cu       5.79104867      17.68875049       3.91989101       2.60385355      -0.00120624      -0.00011161      -0.00010319
Au       3.82694199      15.71937417       7.86832391      -1.00864171       0.00337626      -0.00170410      -0.00022766
Cu       3.82448460      17.58112633       9.81430093       2.19624553      -0.00015240       0.00052926       0.00066787
Cu       5.69433237      15.76317510       9.85978272       2.23272999       0.00059328      -0.00123302      -0.00020065
Au       5.80813244      17.63517086       7.85011686      -0.26896497      -0.00032373      -0.00090622      -0.00049482
Cu       3.80105501      15.71464449      11.69434597       1.55469320      -0.00062762       0.00001272       0.00062566
Au       3.81172610      17.52892187      13.62151621      -1.13770739      -0.00088202      -0.00188532      -0.00072779
Al       5.77766143      15.63997757      13.66520364      -3.81318522      -0.00027423      -0.00065925      -0.00017083
Cu       5.78970489      17.51118527      11.71857905       2.48856739      -0.00031204      -0.00006368      -0.00086401
Au       7.82275431      -0.03996992       0.00443184       0.16517356      -0.00104781      -0.00030221      -0.00020759
Au       7.76204517       1.87834306       1.99190379      -0.44147245      -0.00104887       0.00077541      -0.00032358
Cu       9.77046750       0.04532979       1.94241265       2.33317085      -0.00056214       0.00035606      -0.00029022
Cu       9.78591977       1.85543288       0.06034740       2.57862259      -0.00057966      -0.00057471      -0.00084297
Cu       7.74968282       0.02897899       3.92423876       2.23029505      -0.00083773       0.00016099       0.00040622
Cu       7.75448673       1.87257499       5.78011369       2.50996354      -0.00092405       0.00084738       0.00041933
Al       9.78749151      -0.04484622       5.82033875      -2.56557604       0.00043931      -0.00103482      -0.00022785
Au       9.76396155       1.87121045       3.85060395      -0.66160406       0.00002563      -0.00113267      -0.00057414
Al       7.83214445      -0.05970626       7.84778066      -2.28721730      -0.00124446       0.00021730      -0.00001719
Cu       7.84184459       1.94259762       9.79573166       3.45347273      -0.00114733       0.00090584      -0.00025691
Al       9.80697570      -0.05016256       9.82491654      -1.75036084      -0.00074760       0.00076972      -0.00062512
Au       9.76937963       1.93059235       7.79824970       0.77464574      -0.00089732       0.00185976      -0.00057958
Au       7.80585508       0.03904858      11.72534020       0.06334389      -0.00199728      -0.00030554       0.00036819
Au       7.74854077       1.99201381      13.73316364       0.02186350      -0.00166179      -0.00120012      -0.00072218
Au       9.85123071       0.03984766      13.76292182       0.10254578      -0.00130788      -0.00012115      -0.00091667
Au       9.84387204       2.03049580      11.77005845       0.73141358      -0.00186999       0.00034020      -0.00121896
Al       7.71737298       3.91835791       0.07328902      -2.36663953      -0.00090562       0.00037476       0.00010452
Al       7.74655853       5.92583044       1.98130489      -2.51490386       0.00050544      -0.00091722      -0.00135195
Al       9.75382694       3.89962705       1.91062278      -2.25352294      -0.00009526      -0.00036301      -0.00201872
Au       9.75045617       6.07243490       0.06732053       0.64317946      -0.00056142      -0.00162508       0.00011712
Au       7.73501092       3.83898049       3.92160211       0.01498194      -0.00100314      -0.00000366      -0.00165826
Au       7.84135948       5.97336367       5.85456120       0.33279974       0.00058562      -0.00101599       0.00040435
Au       9.79614119       3.90587153       5.80412097      -0.29101137       0.00089569      -0.00003479       0.00013142
Au       9.78305505       5.96105999       3.89948376      -0.49138797       0.00048800      -0.00040603       0.00111987
Au       7.80973167       3.84503149       7.77607762       0.74110757       0.00062607       0.00120669      -0.00130995
Al       7.80470855       5.89802857       9.77863483      -1.30223119      -0.00031700       0.00104110      -0.00108717
Al       9.81756289       3.92932838       9.75906511      -2.25539868      -0.00092459       0.00168773      -0.00104922
Au       9.87642663       5.95096860       7.74067532       0.63263219       0.00055321      -0.00053869       0.00241514
Al       7.77320150       3.91317311      11.74937479      -2.35017107      -0.00131339      -0.00005190      -0.00110750
Au       7.76267738       5.93690121      13.73520643       0.18811671      -0.00038156      -0.00012232       0.00102852
Au       9.78522419       3.91884455      13.84518076       0.53186735       0.00048776      -0.00044697       0.00026624
Au       9.82239845       5.83776527      11.77674130       1.36892047      -0.00016473      -0.00047962       0.00137671
Cu       7.71733479       7.87701045      -0.02239421       2.97722459       0.00004795      -0.00195521       0.00000641
Al       7.84387149       9.82884137       1.99926274      -3.23646344       0.00104293      -0.00228019      -0.00128527
Cu       9.78252703       7.88121309       1.99599370       2.94549491       0.00161613       0.00111667      -0.00337191
Au       9.72590463       9.75316572       0.04292506      -0.83401941       0.00470883       0.00163946       0.00133259
Cu       7.88413595       7.86710156       3.95624060       3.09686207       0.00130578      -0.00041610      -0.00162488
Au       7.85217915       9.77663536       5.84805068       0.39490678       0.00468200       0.00002104      -0.00286586
Cu       9.84321603       7.84703322       5.79965543       2.99812994       0.00208301       0.00283701       0.00008840
Au       9.80302016       9.77850031       3.91755122      -0.86881691      -0.00450965      -0.00106991       0.00805695
Al       7.81684270       7.93233277       7.91978889      -1.88543227      -0.00110013      -0.00274941       0.00089689
Cu       7.72843004       9.92516178       9.91101308       3.03857191      -0.00065936      -0.00079843       0.00164119
Al       9.86334116       7.88916426       9.80617261      -1.77740956       0.00075049      -0.00218624       0.00205393
Al       9.86264331       9.75319090       7.83461855      -2.19971678       0.00228122       0.00059642      -0.00005492
Au       7.73957296       7.94229317      11.71173289       0.14315806      -0.00147129      -0.00065093       0.00010052
Au       7.74067445       9.83859536      13.69127079      -0.55341331      -0.00103189      -0.00202502      -0.00050794
Al       9.78359302       7.88484622      13.68423223      -2.63936162       0.00076536      -0.00302752       0.00078644
Au       9.81844390       9.90626412      11.72995614       0.53081171      -0.00032017       0.00073557      -0.00248841
Au       7.86406439      11.86315491      -0.04978562      -0.82769273       0.00151114       0.00082544      -0.00056462
Al       7.86854407      13.72077533       1.96201976      -2.87728077       0.00084062       0.00056169      -0.00110607
Cu       9.82878170      11.77803483       1.99049220       2.68356455       0.00318334       0.00311805       0.00031248
Cu       9.76122259      13.68691344      -0.05942192       2.60846848      -0.00113445       0.00067693      -0.00047465
Cu       7.87430161      11.81344828       3.94993894       3.05572290       0.00243639      -0.00058036      -0.00099833
Cu       7.86934962      13.66555186       5.88531180       3.30913827      -0.00184693       0.00163658       0.00000159
Al       9.81262691      11.73277774       5.91341090      -2.67759114      -0.00006986      -0.00308447      -0.00052926
Au       9.82804099      13.65483854       3.91211554      -0.03544600       0.00455650      -0.00424307      -0.00167421
Au       7.78042112      11.76811344       7.94621567       0.48833364      -0.00096699       0.00000190      -0.00062407
Al       7.76170667      13.80130914       9.84936573      -2.31099057       0.00023468      -0.00171744      -0.00023321
Au       9.87225954      11.79359906       9.75951144       0.49184106       0.00307768      -0.00005226       0.00121702
Au       9.84527516      13.77270837       7.81836970       0.47069129       0.00054238       0.00256895       0.00220752
Al       7.78443721      11.85868341      11.77648001      -3.06901339      -0.00038353      -0.00136022       0.00097711
Cu       7.83630265      13.77160090      13.75530418       2.51493459       0.00020877      -0.00050918       0.00022606
Cu       9.75962534      11.74354566      13.78810459       3.06603574      -0.00055361      -0.00123414      -0.00072002
Al       9.77740119      13.72955688      11.81686383      -2.03580620      -0.00189574      -0.00049406      -0.00072981
Au       7.86333733      15.63733941       0.01607764      -0.19262864       0.00006033       0.00052333       0.00021149
Au       7.80676879      17.67982863       2.08851790      -0.54773904       0.00053101      -0.00084753      -0.00157768
Al       9.84009590      15.67737116       2.00485627      -2.23765850       0.00181700       0.00049153       0.00070180
Al       9.78179407      17.63725837       0.02668031      -2.52043353      -0.00144883       0.00026801       0.00013336
Al       7.83996804      15.68318511       3.92539371      -2.34002484       0.00009577       0.00159931      -0.00132429
Au       7.75092851      17.72231044       5.72925350       0.09465382       0.00044545       0.00029498       0.00007785
Al       9.82885840      15.71834140       5.78523401      -2.17170764      -0.00011648       0.00274875       0.00186038
Cu       9.79754357      17.76966502       3.81401052       3.10881512      -0.00002022       0.00036399       0.00056983
Au       7.78256447      15.66598412       7.77638505       1.07081115       0.00122268      -0.00152273      -0.00004088
Au       7.74051187      17.46900620       9.92615284       0.24553034      -0.00099153      -0.00059365      -0.00095303
Al       9.84327329      15.61098936       9.84610817      -1.95014257      -0.00299947       0.00164888       0.00079140
Al       9.80075770      17.55395284       7.82985460      -1.54498292      -0.00030928       0.00049645      -0.00017264
Cu       7.73438463      15.61491237      11.83322460       2.94771060      -0.00063014      -0.00095274      -0.00113350
Au       7.80078717      17.54781958      13.62628420      -0.22747112      -0.00041550      -0.00032361      -0.00057951
Cu       9.67915090      15.61133067      13.75134094       3.06298172      -0.00033126      -0.00044164      -0.00072290
Al       9.85973166      17.53942009      11.81973987      -2.06100814      -0.00035845      -0.00058543       0.00081820
Cu      11.71762775       0.12167724       0.04165055       2.53795038      -0.00000667       0.00024153      -0.00116494