399
Lattice="19.59262691714357 -0.0029401591670048664 0.00043227724696582155 -0.0029405439160256983 19.594541571232078 0.002722427805357169 0.0003459403246241731 0.002177382872289726 15.670877927394494" Properties=species:S:1:pos:R:3:energies:R:1:forces:R:3 energy=11.9692181514699 free_energy=11.9692181514699 stress="0.0005944495114847141 0.0001074953931216274 -0.00011830507704018472 0.0001074953931216274 1.811664327493433e-05 -7.902111733607044e-05 -0.00011830507704018472 -7.902111733607044e-05 0.0011714963548220935" pbc="T T T"
Au      -0.01837930       0.04626587       0.06882860      -1.23104982      -0.00112020       0.00066044      -0.00122658
Cu      -0.08612656       1.90313648       1.90057929       2.73249568      -0.00013938      -0.00004597      -0.00077506
Cu       2.03119544      -0.05189529       1.95434195       3.21288239      -0.00076295      -0.00010126      -0.00060048
Al       1.95967613       1.93761987       0.12625191      -3.31429632       0.00031740      -0.00050933      -0.00072818
Al      -0.07169100      -0.03379282       3.85007118      -2.47470040      -0.00015978      -0.00144396       0.00021685
Al      -0.07762882       1.97224439       5.79014813      -1.87835134       0.00093394      -0.00037393       0.00077784
Al       1.89865179      -0.01648938       5.82428238      -2.17980990       0.00025704      -0.00182301       0.00121719
Al       1.90038029       1.88932253       3.78778963      -2.81045495       0.00063698       0.00035494       0.00012970
Al      -0.08027705      -0.02202672       7.74883976      -2.47638895       0.00103289      -0.00031511       0.00136774
Au       0.00452241       1.92993092       9.75478001      -0.02654438       0.00062851      -0.00002788       0.00065029
Cu       1.87659228      -0.10696182       9.79969124       2.18271114       0.00105379       0.00118827       0.00205692
Au       1.94994645       1.90150572       7.86479986      -0.59369533       0.00090364      -0.00096942       0.00040912
Cu       0.03268995      -0.10974062      11.74367879       2.01687588       0.00036958       0.00069247      -0.00013968
Cu       0.00384411       1.89160283      13.78681177       2.55988452      -0.00004930      -0.00000158      -0.00077835
Au       1.88025480      -0.02930066      13.67805234      -0.27796125       0.00117994       0.00114869      -0.00119313
Au       1.89943675       1.87089053      11.68906630      -0.88022370       0.00098893      -0.00050349       0.00107807
Cu       0.02365184       3.84279108       0.09752333       2.22805845       0.00032329      -0.00015425      -0.00181064
Cu      -0.08756229       5.79739323       1.85526200       2.74536337      -0.00033507       0.00019928      -0.00155201
Cu       1.87980735       3.85033238       1.94017597       2.87067937      -0.00084665       0.00036672      -0.00102558
Au       1.93586574       5.77962162       0.07480686      -0.34972021      -0.00023324       0.00122688      -0.00195828
Al      -0.05435074       3.87406365       3.80402034      -2.52193266       0.00092882       0.00044792       0.00114001
Au       0.00842575       5.77874276       5.92066465       0.15600908      -0.00114524       0.00061789       0.00073651
Au       2.02275473       3.78444288       5.80495776       0.32680382      -0.00083085       0.00063060       0.00027518
Al       1.91013259       5.77804159       3.82613655      -2.28562711      -0.00018839       0.00103317       0.00036128
Cu       0.11369412       3.87022596       7.81231203       3.32341526      -0.00118828      -0.00031696       0.00158375
Au       0.05639254       5.81668134       9.71092261       0.58227100      -0.00005910       0.00099474       0.00100807
Cu       1.96305326       3.83011765       9.79476057       2.86514567       0.00031167       0.00007819       0.00124231
Al       1.97998262       5.85931151       7.82608971      -3.21687506      -0.00010656       0.00005087       0.00163908
Au       0.01287998       3.90210450      11.77723698       0.30393060       0.00019650      -0.00135984       0.00053431
Au      -0.03157920       5.83844872      13.84592753       0.39510102       0.00002732      -0.00118458      -0.00009824
Au       1.92140866       3.83124979      13.78731206       0.18682514      -0.00051746      -0.00150363      -0.00018350
Al       1.98853053       5.85651303      11.81787581      -2.76549648       0.00067378       0.00061377       0.00016047
Al       0.01208787       7.83324239       0.04635575      -2.95928181      -0.00033023       0.00135304      -0.00051215
Au       0.04154412       9.78757253       2.03972693      -0.06424225       0.00013052       0.00105592      -0.00018293
Al       1.94089481       7.83580349       1.93971795      -2.40194786       0.00057677       0.00028158      -0.00077829
Cu       1.96579723       9.84166286      -0.01302904       3.02492485      -0.00046457       0.00044976      -0.00015051
Al       0.06186856       7.77187518       3.95281443      -2.59206712       0.00162105       0.00078496       0.00094132
Al       0.05315450       9.75330008       5.92927295      -2.70047659       0.00004899      -0.00172741      -0.00066906
Cu       1.95288267       7.81889378       5.94635074       3.13412702      -0.00074829       0.00113394       0.00107038
Cu       1.91550396       9.90706407       3.93207439       3.08440828      -0.00130074      -0.00074580      -0.00046870
Cu       0.00641783       7.74757919       7.79379072       3.53315880      -0.00132898       0.00060416       0.00208823
Al       0.02225455       9.88990531       9.86002300      -1.97203925      -0.00039685      -0.00497911      -0.00441783
Al       2.00034871       7.90143725       9.79756827      -2.23424103       0.00096957      -0.00116266       0.00169418
Al       1.94625517       9.81699372       7.94494381      -2.11355512       0.00019527       0.00210620       0.00084513
Al       0.08140842       7.81514023      11.75001106      -2.12252525       0.00119743      -0.00235545      -0.00202103
Au       0.17441339       9.79733022      13.64117357       0.04733560      -0.00076426       0.00100603       0.00259218
Cu       1.96476172       7.81420454      13.77528511       3.06628264       0.00043378      -0.00080490      -0.00164050
Cu       2.05166670       9.86984651      11.74943250       3.00073646      -0.00113778      -0.00206170       0.00138544
Al       0.12116784      11.85954604      -0.06323150      -3.00131567      -0.00086289      -0.00222561      -0.00093484
Cu       0.08659747      13.78370750       2.00435008       2.85525896      -0.00189502      -0.00058841       0.00121994
Au       1.88338289      11.80328908       1.98227890      -1.06963703      -0.00203128      -0.00197918      -0.00034423
Cu       1.98635930      13.83411052      -0.10507170       2.22109554       0.00035918      -0.00044223       0.00073410
Cu       0.01654995      11.80132219       3.97527661       2.76201282       0.00040313      -0.00001567       0.00084601
Au       0.02674729      13.81465825       6.08311062      -1.59010325       0.00142455      -0.00229596       0.00050990
Au       1.84930567      11.80228213       5.95554881       0.11532848      -0.00000642      -0.00039747       0.00041981
Au       1.85186616      13.80361613       3.95898958      -0.39761450       0.00152489       0.00090030      -0.00068919
Cu       0.03446216      11.91808145       7.92712081       3.18915303       0.00077177       0.00077973      -0.00138205
Au      -0.03533828      13.75356113       9.81072059      -1.91316859       0.00011066       0.00471759      -0.00155148
Au       1.95985555      11.87239118       9.96031490      -1.36956733       0.00514281       0.00124001      -0.00374181
Cu       1.89781081      13.80044531       7.97302750       2.58262705      -0.00018017       0.00140007       0.00148934
Au       0.05558065      13.80479966      13.51040737      -0.65829647       0.00079056       0.00333198       0.00146512
Au       1.98508367      11.88618624      13.51156318      -1.24929233       0.00249860      -0.00345541       0.00058007
Cu       2.08566650      13.84570236      11.73893204       2.01254533       0.00152670       0.00031095      -0.00137866
Au       0.06583423      15.58531858      -0.05116671      -0.57884830      -0.00227557       0.00095699       0.00151009
Al      -0.00822510      17.66314193       1.97856610      -2.48777167      -0.00011974       0.00118155      -0.00209614
Cu       1.89397750      15.64990614       1.90266022       2.69359647      -0.00062248      -0.00120730       0.00017646
Au       1.96195466      17.56480507       0.05144439      -1.24501749       0.00000687       0.00073475      -0.00048291
Au       0.00207349      15.77983976       3.96712587      -0.31034899       0.00109345       0.00226471       0.00018834
Cu      -0.10015438      17.58571421       5.87980585       2.88029793       0.00190373       0.00025932       0.00178129
Cu       1.84318839      15.75828754       6.01007164       2.63867624      -0.00065023       0.00134061      -0.00013799
Al       1.96371595      17.63908343       3.93030309      -2.62549699       0.00046931       0.00029255      -0.00036222
Cu       0.01345573      15.68664818       7.95939069       2.16889828      -0.00041142       0.00044853      -0.00142103
Cu       0.00213397      17.61529847       9.82946485       2.20809716      -0.00117253       0.00053182      -0.00039971
Au       1.93210359      15.72104615       9.85509617      -2.50184841       0.00044458      -0.00177710      -0.00308909
Au       1.83635042      17.63570063       7.84320801      -1.56929569      -0.00052084      -0.00020775      -0.00012747
Al      -0.06448090      15.74656323      11.68160666      -4.09540764      -0.00000050       0.00000686      -0.00112236
Au      -0.00857801      17.59720757      13.65239872      -1.34026572       0.00143378       0.00020224       0.00076555
Cu       1.98919447      15.66584151      13.64905488       1.87646367       0.00145031       0.00019260       0.00038323
Cu       1.91488619      17.63899863      11.69729874       2.02347918       0.00246550       0.00127994       0.00162809
Au       3.86556061      -0.05118916       0.08365961       0.10988943      -0.00006550       0.00097136      -0.00141498
Cu       3.90736999       1.93304810       2.07109253       2.58855079       0.00034080       0.00036093      -0.00045196
Al       5.80218053      -0.03938387       2.00795978      -3.47344274      -0.00115044      -0.00000163      -0.00057790
Al       5.79401375       1.94499982       0.04027119      -2.29841317      -0.00056966       0.00133441      -0.00026008
Au       3.92317401      -0.03901055       3.91799865      -1.42388458      -0.00035467       0.00101816       0.00034272
Cu       3.93913744       1.85783952       5.83749006       2.66931703      -0.00147641       0.00010587       0.00041238
Cu       5.80425311      -0.01995557       5.78819867       1.88682313      -0.00024852      -0.00027777      -0.00040520
Cu       5.80701315       1.88217937       3.95732926       1.74749140       0.00025606       0.00028878       0.00008007
Au       3.85483765      -0.04356568       7.86149225      -0.99344741       0.00134140       0.00006525       0.00025452
Cu       3.82605431       1.92638013       9.79060269       2.86077933       0.00078644       0.00028215      -0.00006674
Al       5.83401394       0.00236888       9.83851355      -2.96483747       0.00096248       0.00186215       0.00056869
Au       5.87034573       1.84361631       7.75416644      -0.29556037       0.00006202       0.00100791      -0.00003522
Al       3.87786768      -0.05714113      11.65347411      -3.30157526       0.00083512      -0.00007242       0.00099846
Al       3.92389204       1.90784547      13.70906049      -2.31206890       0.00132617      -0.00012881      -0.00056366
Au       5.82094232      -0.09553599      13.64582208       0.27038854       0.00040097       0.00000280      -0.00007790
Cu       5.87140558       1.95608198      11.77788329       3.12546777       0.00025958       0.00062150       0.00010054
Al       3.94057389       3.85518445       0.08146460      -2.54000026       0.00081837       0.00025049      -0.00083669
Al       3.91192958       5.78394655       2.02003727      -2.26320577      -0.00182703       0.00087504      -0.00164904
Cu       5.78380482       3.74459863       2.12415914       2.95297198      -0.00106474       0.00155159      -0.00093543
Au       5.78815915       5.90440060      -0.04794365      -0.21133319       0.00032246       0.00029661       0.00042547
Cu       3.88771173       3.72736443       3.87376958       2.40350344      -0.00074774       0.00053883      -0.00025194
Au       3.82525480       5.91065855       5.83193433       0.53908912      -0.00054093      -0.00044685      -0.00061144
Al       5.77538142       3.87162640       5.82252375      -3.00882402      -0.00104069       0.00141001       0.00066241
Al       5.80496952       5.88840105       3.90916077      -2.35677938      -0.00152024      -0.00031950      -0.00053890
Au       3.89304458       3.80727368       7.86562807       0.12217853       0.00043447       0.00026511       0.00090016
Au       3.87318470       5.86301132       9.79527481       0.99829611      -0.00038760       0.00083695       0.00162529
Al       5.87375210       3.81222716       9.79760975      -2.35804816       0.00104478      -0.00231994       0.00019505
Al       5.83378565       5.88727312       7.84073311      -2.04460847       0.00108519      -0.00094035       0.00064842
Au       3.91500291       3.82666049      11.75550449      -0.29629468       0.00123536      -0.00006293       0.00009242
Cu       3.87454688       5.87585689      13.76969561       2.77148288       0.00013875      -0.00140031      -0.00014971
Cu       5.79754697       3.95204875      13.68183054       3.26601087       0.00153110       0.00037708      -0.00005537
Al       5.80115663       5.89744238      11.78726490      -2.60035202       0.00039868      -0.00154444      -0.00005147
Au       3.83166076       7.87553415      -0.07008777      -0.78764632      -0.00060196       0.00044738      -0.00009334
Cu       3.79969721       9.86932650       1.89964185       2.80191834       0.00090387       0.00027562       0.00044904
Au       5.79240985       7.91098991       1.96600741       0.54088094      -0.00065912       0.00046029      -0.00186887
Au       5.81196881       9.82998404      -0.01963935      -0.32748040      -0.00027012       0.00050829      -0.00005362
Au       3.74597491       7.98298524       3.92953048       0.48499462      -0.00036848      -0.00231919      -0.00150891
Al       3.81494471       9.84891658       5.96350381      -2.32565100       0.00081418      -0.00026750      -0.00104790
Au       5.80211044       7.88807849       5.88731442       0.92815534       0.00033114      -0.00069226      -0.00124899
Al       5.85262815       9.83886204       3.91599381      -2.71181964      -0.00040586      -0.00070194      -0.00126558
Cu       3.88733099       7.83985737       7.83024189       3.41595741       0.00098653      -0.00015289       0.00037288
Cu       3.89551054       9.91936430       9.99195039       2.40786035       0.00085605      -0.00194861       0.00054520
Au       5.72115439       7.99268621       9.81995958      -0.03452528      -0.00163048      -0.00042186       0.00159165
Al       5.76218266       9.89389897       7.91653296      -2.54369118      -0.00009649       0.00107641       0.00010244
Au       3.87873555       7.90302420      11.88550787      -0.71793536      -0.00007982      -0.00096224      -0.00155174
Al       3.87021234       9.88902633      13.67218521      -3.75592111      -0.00007562       0.00106409       0.00054624
Cu       5.85061385       7.87797893      13.73956191       2.73396457       0.00098309      -0.00083349       0.00033847
Cu       5.80152114       9.87399996      11.74834091       2.19913436       0.00180101       0.00014744      -0.00032291
Au       3.76830212      11.84692710      -0.03009927      -0.66186471       0.00014996      -0.00153112       0.00051921
Al       3.83519550      13.84529583       1.97256395      -3.25984583       0.00017494       0.00001292       0.00112148
Au       5.81503778      11.77441142       1.94875868       0.49762121       0.00019397      -0.00088828      -0.00003641
Au       5.76049820      13.83702960       0.00407990      -0.28698050       0.00059915       0.00210364       0.00041464
Au       3.83071495      11.74979892       3.92588785       0.34579287       0.00173461      -0.00082089       0.00141220
Al       3.80996901      13.76567170       5.93289012      -2.20617799       0.00010411      -0.00011714      -0.00075890
Au       5.91285311      11.83323816       5.87786219       0.76736808      -0.00082584       0.00013511       0.00041996
Au       5.89763299      13.73839935       3.90411563       0.71429727      -0.00158913      -0.00023151      -0.00100692
Al       3.84464836      11.84900938       7.97727365      -2.30780658       0.00138232       0.00102171       0.00112143
Cu       3.82735866      13.81859484       9.86703610       2.19590768      -0.00177011       0.00025724      -0.00016340
Cu       5.76421777      11.75095696       9.94556644       2.38458777       0.00033765      -0.00154590      -0.00169184
Al       5.79248910      13.74075016       7.96233559      -2.41660523      -0.00120826      -0.00032235      -0.00060184
Cu       3.92043333      11.87675428      11.69924805       1.93058452       0.00049110      -0.00045254       0.00062778
Cu       3.79863091      13.81217060      13.66691533       1.89556047       0.00174599       0.00048568       0.00001650
Au       5.77788034      11.91905193      13.65311295      -0.58549156       0.00016338      -0.00310044       0.00018825
Au       5.70843421      13.82862559      11.67706043      -1.71817121       0.00042538       0.00243795      -0.00015338
Cu       3.78925450      15.68253404      -0.00639134       2.12872867      -0.00142127      -0.00144838      -0.00056457
Cu       3.86087952      17.54245342       1.94309417       2.41771410      -0.00169203      -0.00135195      -0.00073449
Cu       5.82152918      15.77302671       1.98917370       2.87705614      -0.00078186      -0.00205679       0.00054545
Au       5.77698688      17.51714329       0.05185068      -0.55158737      -0.00018966      -0.00110054      -0.00065851
Al       3.85500816      15.75916928       3.96035898      -2.66562928       0.00040669       0.00082981      -0.00074309
Cu       3.91057965      17.67918113       5.93336086       2.89659925       0.00020636       0.00014380       0.00077558
Al       5.81796772      15.67636723       5.85115262      -2.31601686      -0.00152499      -0.00031345       0.00033717
Cu       5.77953751      17.67930379       3.92002907       2.60068712       0.00017971      -0.00003114      -0.00066530
Au       3.81643363      15.70806816       7.87735841      -0.99191702      -0.00133288      -0.00165344       0.00092654
Cu       3.82269004      17.58656453       9.80642574       2.19980263       0.00059945       0.00021771       0.00096501
Cu       5.69486729      15.76425182       9.85553600       2.24077666       0.00035319      -0.00095851       0.00053219
Au       5.80026256      17.63061571       7.84594499      -0.28478928      -0.00002899       0.00152230      -0.00101289
Cu       3.81999233      15.73923109      11.68747392       1.55466865       0.00134426       0.00079745       0.00230821
Au       3.81534717      17.53813676      13.62447644      -1.13566577       0.00047005      -0.00027615      -0.00141346
Al       5.77342725      15.63920236      13.66831809      -3.81059704      -0.00106757      -0.00009486      -0.00094884
Cu       5.79665582      17.51732038      11.71837252       2.48678248      -0.00097394       0.00094887      -0.00008707
Au       7.82351082      -0.03921137       0.00996334       0.16298538      -0.00059490      -0.00031050      -0.00057331
Au       7.76175363       1.87975200       1.99644835      -0.44026968      -0.00092773       0.00049492       0.00042767
Cu       9.77083196       0.04417217       1.94543697       2.32573984      -0.00143058      -0.00104823       0.00063081
Cu       9.78606110       1.85762385       0.06403751       2.57491104      -0.00064572      -0.00125191       0.00104356
Cu       7.74767868       0.02787816       3.92544872       2.23404441      -0.00023780      -0.00030431      -0.00001903
Cu       7.75274514       1.87389880       5.77740914       2.50755071      -0.00040304       0.00100549       0.00005476
Al       9.78607862      -0.04993570       5.81729349      -2.56381532       0.00010667      -0.00090548      -0.00066426
Au       9.76497351       1.87132907       3.85187731      -0.66113792       0.00074576       0.00108421      -0.00036152
Al       7.82841976      -0.05957348       7.84174151      -2.28537813      -0.00126410       0.00004147      -0.00030876
Cu       7.84168653       1.94383572       9.79178887       3.44351682       0.00051043       0.00063739      -0.00108107
Al       9.80467128      -0.04688212       9.82119102      -1.75112857      -0.00128937      -0.00012145      -0.00130949
Au       9.76909313       1.93226458       7.79228081       0.77186003      -0.00120968      -0.00034557      -0.00163098
Au       7.80473936       0.03998522      11.72484542       0.05684290       0.00041135       0.00166862       0.00065650
Au       7.75011442       1.99352182      13.73518217       0.02077100      -0.00008344       0.00032278       0.00042572
Au       9.84941419       0.04063492      13.76630173       0.10181568       0.00018322       0.00071569       0.00082713
Au       9.84447870       2.03245384      11.77055374       0.73241278      -0.00086890      -0.00040881      -0.00081568
Al       7.71830590       3.91990439       0.07796740      -2.36531515       0.00047545      -0.00024585      -0.00116666
Al       7.74450821       5.93125762       1.98529807      -2.51649757      -0.00091864       0.00087785      -0.00052999
Al       9.75571668       3.90319700       1.91385343      -2.25120072      -0.00071210       0.00157507       0.00168975
Au       9.75404649       6.07480973       0.07337351       0.64556819       0.00061501      -0.00058537       0.00055937
Au       7.73465009       3.84335364       3.92291399       0.01434803      -0.00144368       0.00135148       0.00004865
Au       7.83743715       5.97956629       5.85293711       0.33005345      -0.00026620       0.00025510      -0.00033405
Au       9.79777474       3.91060911       5.80152126      -0.28422751       0.00008656       0.00189588       0.00069171
Au       9.78528503       5.96772217       3.90020472      -0.49425165      -0.00031579       0.00251492       0.00028309
Au       7.80841606       3.84690523       7.76998932       0.73806266      -0.00024196       0.00020806       0.00050319
Al       7.80531576       5.89857499       9.77354915      -1.29959980      -0.00017518      -0.00056547       0.00017106
Al       9.81893389       3.93176917       9.75466364      -2.24958259      -0.00051707      -0.00078750      -0.00019058
Au       9.87765807       5.95436683       7.73618607       0.63072825      -0.00065316       0.00105080       0.00128659
Al       7.77542919       3.91313662      11.74815279      -2.34670407      -0.00018047      -0.00097261       0.00006958
Au       7.76546291       5.93622445      13.73970738       0.18649244       0.00013650      -0.00039151      -0.00041425
Au       9.78749066       3.92087631      13.84854820       0.52913723       0.00032606      -0.00033304      -0.00054404
Au       9.82402521       5.83710057      11.77760484       1.36364268       0.00160027      -0.00076428      -0.00025736
Cu       7.71762961       7.87893191      -0.01640573       2.96807628      -0.00102235      -0.00108620      -0.00104466
Al       7.83343390       9.83570097       1.99947567      -3.22779340      -0.00092479      -0.00006609      -0.00120922
Cu       9.78392419       7.88665695       1.99832615       2.94440410       0.00048688       0.00088972      -0.00055020
Au       9.72885652       9.75465060       0.05031013      -0.84299979       0.00012913      -0.00026515      -0.00033378
Cu       7.87751175       7.87280916       3.95648140       3.09072001       0.00001262       0.00105104      -0.00012599
Au       7.84587915       9.78425409       5.84690854       0.38444789       0.00024013      -0.00024700      -0.00047234
Cu       9.83845481       7.85072140       5.79711865       2.99665796      -0.00026788       0.00159265       0.00018034
Au       9.79383171       9.78261191       3.91330395      -0.88198800      -0.00040944       0.00095929       0.00007363
Al       7.81103892       7.93553695       7.91685652      -1.88556849       0.00033752      -0.00101490       0.00044492
Cu       7.72877824       9.92423187       9.91194652       3.03861661       0.00019668      -0.00037732       0.00046277
Al       9.86267074       7.88469325       9.80670824      -1.77453451      -0.00028943       0.00027618       0.00016900
Al       9.84939538       9.75434634       7.84252812      -2.21369378      -0.00077033      -0.00047350       0.00018631
Au       7.73989356       7.93933229      11.71229755       0.13885111       0.00007601      -0.00031723       0.00023332
Au       7.74519202       9.83446009      13.69528137      -0.55612241       0.00017618      -0.00100060      -0.00052932
Al       9.78589874       7.88303559      13.68820178      -2.63435468       0.00082214      -0.00115466       0.00106550
Au       9.81860928       9.90203664      11.72998381       0.53782020       0.00247265      -0.00171508      -0.00014463
Au       7.86417253      11.86175057      -0.04601291      -0.82135394      -0.00038663       0.00075595      -0.00125231
Al       7.85532135      13.71388160       1.96433259      -2.87199039      -0.00103634      -0.00105282      -0.00022997
Cu       9.82997378      11.78093876       1.99370523       2.68172587      -0.00017655      -0.00067562      -0.00051869
Cu       9.75992356      13.68671527      -0.05281053       2.60549616      -0.00011040      -0.00057835      -0.00093238
Cu       7.85925037      11.81395083       3.95405449       3.04686867      -0.00085465       0.00067112      -0.00055612
Cu       7.85604096      13.66036195       5.88485659       3.29465662      -0.00085469       0.00069801       0.00060165
Al       9.81118736      11.73924473       5.91105928      -2.72183168      -0.00042670       0.00005748      -0.00020441
Au       9.81935211      13.65285152       3.91000440      -0.02369362      -0.00042521      -0.00056208      -0.00016974
Au       7.77971728      11.77002308       7.94386439       0.48461691      -0.00181815       0.00029641       0.00098224
Al       7.75847968      13.80224055       9.85145550      -2.31820921       0.00147407       0.00061779      -0.00015176
Au       9.86279927      11.79764502       9.76747066       0.50273379       0.00132446       0.00008191       0.00136615
Au       9.83436411      13.78238216       7.82102167       0.47964049       0.00029515       0.00014120       0.00120715
Al       7.78765111      11.85744037      11.78090011      -3.07338076       0.00104769       0.00013984      -0.00033236
Cu       7.83685021      13.77323726      13.75919140       2.51772164       0.00038709       0.00012546      -0.00074658
Cu       9.75984343      11.74212644      13.79174242       3.06311199       0.00129250      -0.00011584      -0.00030961
Al       9.77489025      13.73375202      11.82104431      -2.03887691      -0.00012935       0.00149523      -0.00001442
Au       7.85791692      15.63334030       0.02159609      -0.19841780      -0.00079688       0.00019468      -0.00081578
Au       7.80194581      17.67571637       2.09219077      -0.53741155      -0.00071703      -0.00094250      -0.00141142
Al       9.83852005      15.67243941       2.01118540      -2.23293864       0.00079361      -0.00083416      -0.00079893
Al       9.77971791      17.63403316       0.03339939      -2.52208571       0.00095717       0.00036693       0.00051324
Al       7.82216226      15.67504782       3.92351390      -2.33553893       0.00011001      -0.00035247      -0.00117043
Au       7.74046115      17.71801079       5.72605710       0.08950891       0.00010813      -0.00140475      -0.00140584
Al       9.81415667      15.72389285       5.77605520      -2.15337114      -0.00018178      -0.00163370       0.00057633
Cu       9.79472984      17.76760241       3.81239800       3.11008552      -0.00112554      -0.00126691      -0.00043974
Au       7.77085458      15.66267928       7.77598558       1.05896118      -0.00061635       0.00127609      -0.00130073
Au       7.73857433      17.47234695       9.92121155       0.24708442       0.00019669      -0.00011795      -0.00075348
Al       9.83677673      15.61631366       9.85019571      -1.95326722      -0.00028718       0.00132519       0.00068578
Al       9.79529070      17.55187416       7.82575126      -1.54786062      -0.00073595      -0.00080734       0.00081801
Cu       7.73209228      15.61981582      11.83443393       2.94589867       0.00010713       0.00009703       0.00096044
Au       7.79930574      17.54817276      13.63218393      -0.23168795      -0.00032858      -0.00031438       0.00028548
Cu       9.67738105      15.61347197      13.75805826       3.06049957       0.00059488       0.00012074      -0.00109153
Al       9.85581919      17.54355927      11.82286488      -2.05926954       0.00003672       0.00085689       0.00008111
Cu      11.71384194       0.12116443       0.04697096       2.53283190       0.00137890      -0.00057638       0.00072548
Cu      11.77689982       1.90424867       1.91738398       2.32186140       0.00018099      -0.00076058       0.00070663