399
Lattice="19.59262691714357 -0.0029401591670048664 0.00043227724696582155 -0.0029405439160256983 19.594541571232078 0.002722427805357169 0.0003459403246241731 0.002177382872289726 15.670877927394494" Properties=species:S:1:pos:R:3:energies:R:1:forces:R:3 energy=11.94914135160194 free_energy=11.94914135160194 stress="0.00032664673479652467 8.210054295762843e-05 -0.00014374204926721412 8.210054295762843e-05 0.00026753088742195556 -0.00012284020274731477 -0.00014374204926721412 -0.00012284020274731477 0.0008931245448029893" pbc="T T T"
Au      -0.01722514       0.02756853       0.05994264      -1.24382895       0.00133577      -0.00062240      -0.00004823
Cu      -0.08296075       1.89203424       1.89081675       2.71916670      -0.00038805      -0.00023850       0.00059963
Cu       2.02281850      -0.06414252       1.94156085       3.19657142      -0.00187440      -0.00071854       0.00147672
Al       1.95649112       1.92933435       0.11630907      -3.31896677      -0.00076903       0.00063976       0.00226638
Al      -0.07122536      -0.05209954       3.83707667      -2.49078235       0.00034210      -0.00079400      -0.00082464
Al      -0.07722159       1.95649062       5.79639378      -1.87897230      -0.00045912      -0.00042060      -0.00206068
Al       1.89041797      -0.03293222       5.83648207      -2.19562518       0.00020106      -0.00014895      -0.00052612
Al       1.89370698       1.87647535       3.79116527      -2.79805450      -0.00064186       0.00002825      -0.00109093
Al      -0.08181511      -0.04291300       7.77443524      -2.43566552       0.00197296      -0.00189174      -0.00080125
Au      -0.00165371       1.92633709       9.76239556       0.00015122       0.00060420      -0.00005672      -0.00110787
Cu       1.84902101      -0.13623423       9.82693008       2.18933511       0.00036976      -0.00125441      -0.00147282
Au       1.94067678       1.89361400       7.87465525      -0.56879125      -0.00012620       0.00043048       0.00064400
Cu       0.02939603      -0.13337880      11.75442381       2.02786529      -0.00073750       0.00097168       0.00161852
Cu       0.00741613       1.88351919      13.78956828       2.57082495      -0.00064650       0.00038270      -0.00096442
Au       1.87470178      -0.05277547      13.67396600      -0.28431817      -0.00242861      -0.00091926       0.00000531
Au       1.88839595       1.86432521      11.69719209      -0.87293033       0.00130865       0.00055188      -0.00019634
Cu       0.02603200       3.84333869       0.09429997       2.23854780       0.00088639      -0.00053312       0.00038337
Cu      -0.09020202       5.79483053       1.85375090       2.75363370       0.00120382       0.00015479       0.00034552
Cu       1.87897222       3.84100431       1.93529068       2.85557930      -0.00104396       0.00027521       0.00111478
Au       1.93170736       5.78541194       0.07711539      -0.35452396      -0.00118437       0.00086169      -0.00049664
Al      -0.05260216       3.86280545       3.80176061      -2.51707504      -0.00036904      -0.00030663       0.00015059
Au       0.00683454       5.77466132       5.91586191       0.14221767       0.00084749      -0.00045953       0.00028039
Au       2.01512337       3.77702273       5.80934606       0.31934736      -0.00065816      -0.00067675      -0.00055460
Al       1.90383469       5.77165331       3.82036521      -2.29227149      -0.00052347      -0.00095148       0.00064265
Cu       0.11224294       3.87426501       7.81958044       3.29921913       0.00102094      -0.00065318      -0.00032300
Au       0.05975532       5.83737082       9.71906611       0.59399173       0.00056399       0.00012439      -0.00000148
Cu       1.95273564       3.83193616       9.80133725       2.85785566       0.00042703      -0.00011947      -0.00028743
Al       1.97512644       5.86290477       7.82682941      -3.21862850      -0.00063526       0.00034243      -0.00043149
Au       0.01241626       3.90687175      11.77903040       0.30382936       0.00091195       0.00206356      -0.00093598
Au      -0.03256247       5.85294200      13.84613285       0.38525312      -0.00061884      -0.00027483      -0.00006256
Au       1.91478677       3.83698520      13.78883958       0.18118771      -0.00006741      -0.00064742       0.00045919
Al       1.97851447       5.87328545      11.82323226      -2.75715539      -0.00104789       0.00032804      -0.00032745
Al       0.00460145       7.84193258       0.05669287      -2.95282978       0.00135281       0.00191650      -0.00164503
Au       0.04198571       9.81026119       2.03972079      -0.09771338       0.00019123       0.00178584      -0.00063868
Al       1.93452727       7.84186575       1.93972212      -2.40003799       0.00099329       0.00067575      -0.00019826
Cu       1.95990003       9.87566613       0.01744459       3.01947094       0.00036872       0.00169677      -0.00016122
Al       0.06052130       7.77632799       3.94602722      -2.59305513       0.00136099       0.00059249      -0.00010237
Al       0.05435078       9.75829486       5.92322156      -2.71295218       0.00102610       0.00174176      -0.00008375
Cu       1.95156281       7.81175094       5.93439204       3.15094080      -0.00042954       0.00169708      -0.00154302
Cu       1.92073305       9.91353579       3.92529320       3.07304821      -0.00072553       0.00042560      -0.00142421
Cu       0.00425085       7.74732595       7.77903386       3.54966253      -0.00097959       0.00027771       0.00050984
Al       0.02612127       9.85173959       9.75553427      -2.24520150       0.00045791       0.00093320      -0.00183394
Al       2.00841733       7.92060994       9.79527086      -2.20247529       0.00204694       0.00008708       0.00330433
Al       1.98401315       9.80294939       7.90162278      -2.12835361      -0.00012905      -0.00059671      -0.00053259
Al       0.09742241       7.87216568      11.75467394      -2.14967549       0.00059428      -0.00026042       0.00191357
Au       0.17942118       9.84739669      13.68150389      -0.01598816       0.00089266      -0.00089887       0.00046728
Cu       1.95106528       7.83115490      13.79168681       3.09416707      -0.00187774       0.00089252       0.00057000
Cu       2.01135829       9.98435183      11.73960922       2.93707980      -0.00150951      -0.00009940       0.00041378
Al       0.09984638      11.95140086      -0.07252571      -2.76786216      -0.00012006       0.00025252       0.00132867
Cu       0.07834221      13.80191188       2.01290107       2.87698456       0.00247146      -0.00070840       0.00140620
Au       1.88180094      11.82422689       1.98361793      -1.12302088       0.00267140       0.00074774      -0.00033983
Cu       2.06983214      13.84124644      -0.02279888       2.25579631       0.00014988       0.00018288      -0.00057056
Cu       0.01395144      11.81567880       3.97503699       2.75318800       0.00212936       0.00014780      -0.00059740
Au       0.02138195      13.81705329       6.07430592      -1.60158693      -0.00015874      -0.00116819       0.00052658
Au       1.86354273      11.81052253       5.94081551       0.08094188      -0.00052741      -0.00055409       0.00055472
Au       1.85856955      13.81847741       3.95726493      -0.39957875       0.00011658      -0.00058356      -0.00026972
Cu       0.03288813      11.89918691       7.88718271       3.25608652       0.00031201       0.00283738       0.00235924
Au      -0.05752230      13.79864451       9.68803213      -2.00660845       0.00189833      -0.00583719      -0.00158071
Au       2.02325428      11.88942789       9.82902867      -1.44947353      -0.00567931       0.00111579       0.00160699
Cu       1.92604605      13.82443817       7.91785914       2.65866081      -0.00283542      -0.00080617      -0.00067167
Au       0.03245185      11.92562556      11.71832824      -0.40970982       0.00302161      -0.00004909      -0.00412340
Au       1.99906629      11.98504103      13.62572141      -1.26046779      -0.00363309      -0.00001350      -0.00015658
Cu       2.13543702      13.77656304      11.72383736       1.98562602      -0.00116280       0.00031215       0.00000373
Au       0.08935866      15.49202809      -0.15363787      -0.57776470      -0.00161619      -0.00119576      -0.00019674
Al      -0.00293478      17.63035619       1.95040841      -2.46362888      -0.00030532       0.00062244      -0.00104887
Cu       1.88678460      15.64196663       1.89073661       2.65455231       0.00022129      -0.00083284       0.00065021
Au       1.94699878      17.52284287       0.03057933      -1.24521626       0.00009605       0.00013263      -0.00042309
Au      -0.00138438      15.78652832       3.97294597      -0.31629422       0.00180528      -0.00109778      -0.00261563
Cu      -0.10081557      17.58869739       5.88701420       2.86480740      -0.00099912      -0.00127970       0.00088507
Cu       1.85264879      15.77445883       6.00248168       2.59972727       0.00032476      -0.00225264      -0.00172172
Al       1.95937058      17.63951881       3.91878117      -2.61449071       0.00164489      -0.00160680      -0.00009663
Cu       0.01691970      15.71905882       7.91313000       2.28302907      -0.00153206       0.00192119      -0.00065260
Cu      -0.01479083      17.50196720       9.91365509       1.95293775       0.00190018      -0.00080203       0.00221919
Au       1.93226344      15.68949292       9.87443289      -2.52138454      -0.00084067      -0.00132868       0.00507163
Au       1.83242845      17.62585672       7.87740905      -1.56142696      -0.00117238       0.00545526       0.00080572
Al       0.00634453      15.45989677      11.88855223      -3.73153108      -0.00006617       0.00210642      -0.00126573
Au      -0.00310504      17.55453777      13.63415074      -1.33814862      -0.00057682      -0.00134547       0.00032790
Cu       2.05263061      15.60881912      13.67728713       1.77818765       0.00128267       0.00064249      -0.00013507
Cu       1.90232700      17.58323534      11.71788286       1.98841444      -0.00180635      -0.00134713       0.00222663
Au       3.85136682      -0.06987998       0.07492907       0.08522323       0.00089275       0.00046911      -0.00081510
Cu       3.89484879       1.92760918       2.06608216       2.58268692      -0.00097504       0.00014745       0.00082228
Al       5.79341538      -0.03356147       2.00422572      -3.47507767      -0.00049967      -0.00072700      -0.00024637
Al       5.78048744       1.94051378       0.03699500      -2.29423670       0.00047723      -0.00066386       0.00147270
Au       3.91467890      -0.04144376       3.91823445      -1.40695815       0.00128893      -0.00030768      -0.00179183
Cu       3.92624459       1.84861395       5.84622810       2.66404515      -0.00013339       0.00061785      -0.00090339
Cu       5.79510825      -0.01828816       5.79360506       1.87834714       0.00069145       0.00109327      -0.00046698
Cu       5.79688430       1.87940353       3.95992963       1.74591547      -0.00145062       0.00137811      -0.00105605
Au       3.84180251      -0.05046955       7.88311813      -0.96269550      -0.00018616      -0.00041597       0.00069513
Cu       3.81429637       1.92434664       9.80122855       2.86708777      -0.00094317       0.00079108       0.00040001
Al       5.82850694       0.00499066       9.84802594      -2.96155207      -0.00203152      -0.00101095      -0.00102478
Au       5.85618548       1.84165768       7.76115842      -0.29229091       0.00003456       0.00061681      -0.00097836
Al       3.86329694      -0.07001308      11.65459354      -3.28674619      -0.00049393      -0.00117519      -0.00054003
Al       3.91172145       1.90134970      13.70661180      -2.30915191      -0.00076588      -0.00015186       0.00075209
Au       5.81702438      -0.09380355      13.64034623       0.26581423      -0.00019320      -0.00033839       0.00028042
Cu       5.85866695       1.95843603      11.78017530       3.12406931      -0.00018807       0.00007062       0.00060101
Al       3.93459787       3.85651115       0.07584557      -2.53667189      -0.00077064      -0.00133856       0.00079237
Al       3.90708390       5.78025292       2.01620159      -2.26083351      -0.00140370       0.00081833       0.00000244
Cu       5.77403865       3.73762953       2.12446153       2.94702322      -0.00095173       0.00076123      -0.00033857
Au       5.77769852       5.91082807      -0.05655076      -0.21559510      -0.00042734      -0.00094105       0.00067101
Cu       3.87703214       3.71945431       3.87366782       2.39865610      -0.00066388      -0.00032887      -0.00075800
Au       3.81895966       5.90018226       5.82837192       0.53082153      -0.00142685      -0.00026867       0.00078546
Al       5.76383055       3.86479483       5.82605748      -3.00867557       0.00084517       0.00123392      -0.00111601
Al       5.80056928       5.87789682       3.90655457      -2.35793997      -0.00085248      -0.00049964      -0.00004815
Au       3.87985380       3.80474414       7.87353104       0.12219362       0.00079330       0.00163198      -0.00192290
Au       3.86012766       5.86687878       9.80129608       1.00067130       0.00014615       0.00041435       0.00124352
Al       5.86086120       3.81315406       9.80362289      -2.35845038      -0.00041187       0.00093028      -0.00241306
Al       5.82585994       5.88047494       7.84557566      -2.04740753      -0.00015127      -0.00028998      -0.00117395
Au       3.89975934       3.82977079      11.75940097      -0.30133089       0.00052218      -0.00044293      -0.00101207
Cu       3.85892956       5.89203389      13.77056688       2.77420456       0.00238988      -0.00106837      -0.00120305
Cu       5.78463050       3.95443030      13.67964137       3.26934457      -0.00058111       0.00014746      -0.00047917
Al       5.77855015       5.90894677      11.79410545      -2.61139372       0.00017219       0.00082683      -0.00014313
Au       3.82441408       7.88944751      -0.06611776      -0.78335763       0.00038244       0.00065626      -0.00111582
Cu       3.80636539       9.86855487       1.91499712       2.80173677       0.00022741       0.00214134      -0.00020157
Au       5.79141282       7.90259756       1.96414219       0.54812888      -0.00022470       0.00011311       0.00001834
Au       5.82117023       9.82313572      -0.01740688      -0.33931956      -0.00080979       0.00023016      -0.00174422
Au       3.74381779       7.97117978       3.92348100       0.48921488      -0.00120083      -0.00073749      -0.00073478
Al       3.82998545       9.84008361       5.93887098      -2.31379690       0.00018134       0.00017477       0.00076341
Au       5.80323200       7.87307483       5.88246700       0.92576798      -0.00016574      -0.00116271      -0.00088760
Al       5.86032696       9.82398304       3.91444489      -2.71332409      -0.00060099       0.00047934      -0.00088986
Cu       3.89257034       7.82800932       7.82060200       3.44477892      -0.00034392       0.00049458       0.00026757
Cu       3.89714106       9.92748537       9.99060919       2.42510718       0.00111462      -0.00068409       0.00052253
Au       5.70714871       7.99121215       9.83008393      -0.03681901      -0.00232923       0.00053294       0.00109901
Al       5.76727393       9.87660148       7.91134779      -2.53285070      -0.00046448      -0.00000611       0.00023273
Au       3.84565484       7.93937422      11.89036733      -0.66654337       0.00032432      -0.00046845      -0.00003518
Al       3.83571391       9.91535325      13.68136763      -3.73915154       0.00070447       0.00086269       0.00061965
Cu       5.83520217       7.88949317      13.73278414       2.70796466      -0.00003373      -0.00077442       0.00009042
Cu       5.79465655       9.87572163      11.75646229       2.19005412      -0.00129061      -0.00071090       0.00033317
Au       3.81774358      11.84020738       0.01575278      -0.66960342      -0.00009603       0.00059517       0.00060156
Al       3.87312891      13.85858336       2.00396761      -3.28641803       0.00212368      -0.00032969      -0.00133061
Au       5.85145021      11.76957520       1.96837330       0.49399089      -0.00184907       0.00207963       0.00203106
Au       5.78791765      13.83838459       0.01444162      -0.32154901       0.00249609       0.00289733      -0.00049747
Au       3.84317358      11.75472510       3.92066790       0.34621199       0.00258626       0.00223028      -0.00429186
Al       3.83105239      13.78482792       5.90909201      -2.21622320       0.00020372       0.00113306       0.00138021
Au       5.93388683      11.82684731       5.86069211       0.76158242       0.00082635       0.00116378       0.00067287
Au       5.92232493      13.75128328       3.91041297       0.72127629      -0.00002267      -0.00056114      -0.00352239
Al       3.90431399      11.85277604       7.91202221      -2.24844924       0.00115159       0.00040408      -0.00002394
Cu       3.86881972      13.82414666       9.84470103       2.21688240       0.00150910       0.00127029      -0.00086694
Cu       5.75449262      11.75343222       9.94351114       2.35158379       0.00108451      -0.00123536      -0.00007110
Al       5.81447414      13.75761417       7.93718021      -2.41626024      -0.00019519       0.00006003       0.00210335
Cu       3.90616310      11.87865270      11.71120774       1.79649281       0.00076056      -0.00110123      -0.00013759
Cu       3.86473881      13.81349966      13.68647160       2.01574679      -0.00094222       0.00043576       0.00128645
Au       5.79116777      11.90664810      13.65741908      -0.61051313       0.00176489       0.00001373      -0.00097765
Au       5.72247877      13.82087070      11.68336897      -1.73664410       0.00288881       0.00171003      -0.00214343
Cu       3.83033021      15.69394902       0.01114600       2.13861160       0.00071991      -0.00225627      -0.00214942
Cu       3.85583274      17.54334361       1.93194513       2.41469951      -0.00069134      -0.00093709       0.00201440
Cu       5.83873373      15.78898075       1.99189858       2.88210155       0.00003865      -0.00188862      -0.00074726
Au       5.79315686      17.52990407       0.05064021      -0.55456256       0.00089357      -0.00055718      -0.00054266
Al       3.86284905      15.78154059       3.95622289      -2.66333572       0.00017615       0.00008653      -0.00125741
Cu       3.90434307      17.68538794       5.94131639       2.89323388       0.00101980       0.00013700      -0.00145946
Al       5.82432616      15.70022652       5.84668616      -2.31713192       0.00253291      -0.00162973       0.00040291
Cu       5.78486809      17.69404697       3.91821987       2.61469204       0.00113237       0.00063199       0.00048012
Au       3.82412299      15.71762409       7.87953705      -1.04078260       0.00324384      -0.00151711      -0.00337071
Cu       3.81950802      17.56787629       9.82447164       2.19468147      -0.00143950       0.00166085       0.00004005
Cu       5.70969288      15.76369665       9.85801642       2.22769418      -0.00130227      -0.00153123      -0.00065394
Au       5.80105409      17.63984232       7.85263459      -0.26963384      -0.00060149       0.00075929       0.00089928
Cu       3.83280295      15.71607118      11.69435068       1.55862100      -0.00124322       0.00023834      -0.00190407
Au       3.82382293      17.52571655      13.62265538      -1.14962516      -0.00127130      -0.00040154       0.00120306
Al       5.80146248      15.64756614      13.67173759      -3.84059041      -0.00050594      -0.00226654       0.00005038
Cu       5.79954035      17.51631046      11.71825886       2.49228504       0.00019363       0.00042276       0.00049590
Au       7.82356056      -0.02706638       0.00655475       0.16417293      -0.00028568      -0.00001426       0.00059850
Au       7.75639358       1.88378093       1.99613706      -0.44077232      -0.00049221      -0.00037947      -0.00086775
Cu       9.77145073       0.05491152       1.94623123       2.33662965       0.00140093       0.00138321      -0.00102990
Cu       9.78729994       1.86343047       0.06387667       2.57757227       0.00114884       0.00031648      -0.00056701
Cu       7.74286485       0.03787284       3.92707413       2.23520969       0.00010786       0.00091084       0.00003086
Cu       7.74499632       1.87557588       5.78191028       2.50653589       0.00000065       0.00008911       0.00016563
Al       9.78673106      -0.03857864       5.81921263      -2.56449379       0.00001649       0.00155029       0.00052348
Au       9.76410182       1.87749119       3.85244967      -0.65516781      -0.00087865      -0.00016447       0.00040751
Al       7.82447342      -0.04957007       7.84520930      -2.29237257      -0.00064496       0.00128251       0.00065025
Cu       7.83439543       1.95114805       9.79208874       3.45210949      -0.00034333      -0.00105924       0.00087976
Al       9.80332004      -0.03383582       9.81997939      -1.75309055       0.00031670      -0.00007029       0.00084145
Au       9.76852763       1.93776165       7.79337447       0.78128720       0.00049110       0.00095020       0.00195150
Au       7.80467219       0.05141986      11.72439145       0.06139070      -0.00085721       0.00000853      -0.00142257
Au       7.74164664       2.00133840      13.73377366       0.02774664      -0.00061870      -0.00013241       0.00000960
Au       9.84889228       0.05515202      13.76373655       0.09971030       0.00061578       0.00009282      -0.00001586
Au       9.84107636       2.04443040      11.76861062       0.73316727      -0.00017859      -0.00129980       0.00046357
Al       7.70654938       3.92153859       0.07590498      -2.36153528       0.00113649      -0.00173330       0.00112577
Al       7.74078183       5.92549103       1.98183533      -2.51118409      -0.00019317      -0.00044891       0.00086072
Al       9.75415673       3.90253254       1.91149976      -2.25628217       0.00049544      -0.00033924       0.00067538
Au       9.75256434       6.07054402       0.06999031       0.63939462      -0.00063353      -0.00135938       0.00009401
Au       7.72850221       3.83993477       3.92589674       0.01554729      -0.00092455       0.00029607       0.00012329
Au       7.83587927       5.97069341       5.85536137       0.32389473      -0.00026254       0.00007795       0.00012607
Au       9.79802631       3.90978444       5.80393439      -0.28420137      -0.00039146      -0.00055499      -0.00082227
Au       9.78452119       5.95880871       3.89930138      -0.49913109       0.00088596       0.00005593       0.00060145
Au       7.79930900       3.84325874       7.77160693       0.72600985       0.00112911       0.00113252       0.00002382
Al       7.79520692       5.89432666       9.77953296      -1.29501587      -0.00007880      -0.00040674      -0.00054828
Al       9.81448038       3.93425070       9.75233700      -2.24913789       0.00049447       0.00010192       0.00030240
Au       9.87643371       5.94837102       7.74040098       0.63416366      -0.00011019      -0.00014049      -0.00093067
Al       7.76377956       3.91793868      11.74941407      -2.34621236      -0.00012525      -0.00034835      -0.00102626
Au       7.75728425       5.93651792      13.73536064       0.19342897       0.00087001      -0.00113442      -0.00006966
Au       9.78490474       3.92122732      13.85132814       0.52900514       0.00009414       0.00076946      -0.00088026
Au       9.82435234       5.82976978      11.77787865       1.36606066      -0.00081067      -0.00066111      -0.00103404
Cu       7.71519901       7.87062256      -0.02298786       2.98886132      -0.00027945      -0.00038448       0.00124000
Al       7.84184769       9.81640914       1.99933587      -3.23433181      -0.00045159      -0.00131969       0.00024636
Cu       9.78868488       7.87504801       1.99892676       2.95966506      -0.00154888       0.00026015       0.00030389
Au       9.72951961       9.74203711       0.04947692      -0.82930763       0.00058053      -0.00135254      -0.00003604
Cu       7.87947103       7.86006373       3.95659280       3.10238126      -0.00073290      -0.00062109       0.00017728
Au       7.84936292       9.76849527       5.84907173       0.39409047       0.00069183      -0.00055213      -0.00009289
Cu       9.84054951       7.83850264       5.79962185       2.99795496      -0.00066302      -0.00068178      -0.00036685
Au       9.79586404       9.77064112       3.91729910      -0.88214246      -0.00137743       0.00023987       0.00028928
Al       7.80643684       7.92346356       7.92329585      -1.87935748      -0.00181909       0.00014282       0.00040358
Cu       7.72184020       9.91837763       9.91136358       3.04081427      -0.00049803      -0.00003294       0.00133338
Al       9.86221834       7.87408898       9.80852162      -1.77024299      -0.00015215       0.00042917      -0.00184621
Al       9.84632607       9.74385450       7.84413467      -2.21456543       0.00023359      -0.00078077      -0.00016594
Au       7.73536721       7.93616688      11.71089083       0.14495313       0.00023897      -0.00043114      -0.00025824
Au       7.75127165       9.82857072      13.69361556      -0.55722771      -0.00113502       0.00073941      -0.00017107
Al       9.78586153       7.87376461      13.68394735      -2.63167970       0.00087720       0.00015958      -0.00003841
Au       9.81888227       9.89369775      11.72458380       0.54295136       0.00087255      -0.00119470       0.00070712
Au       7.87656021      11.85552455      -0.04170950      -0.83012927       0.00052783       0.00057331      -0.00263722
Al       7.87189939      13.72230961       1.96451625      -2.87840553      -0.00026847       0.00157076      -0.00037673
Cu       9.82792656      11.77400754       2.00068433       2.67781940       0.00000775      -0.00090807      -0.00043042
Cu       9.76397865      13.68872206      -0.05472945       2.61410216       0.00027240      -0.00122541      -0.00043427
Cu       7.87346197      11.80728629       3.94971333       3.05680026       0.00117803      -0.00001919       0.00046510
Cu       7.86372195      13.66897807       5.88526496       3.31414333       0.00194356      -0.00071543       0.00103683
Al       9.80573584      11.73406637       5.91414589      -2.72896258       0.00043929      -0.00073935      -0.00051980
Au       9.81941301      13.65865263       3.91541266      -0.03134736       0.00049761      -0.00050146       0.00133097
Au       7.77475453      11.76344513       7.94513861       0.49517362       0.00071591      -0.00004623       0.00168335
Al       7.75960474      13.80163701       9.84663532      -2.32110148      -0.00173330       0.00056192       0.00147905
Au       9.86137580      11.79140526       9.76310038       0.50619903      -0.00114615      -0.00070364       0.00018567
Au       9.83049969      13.78080739       7.82134688       0.47088058      -0.00042317       0.00001143       0.00010304
Al       7.79084218      11.85156152      11.77456093      -3.06817826       0.00127974      -0.00100597       0.00068394
Cu       7.84608879      13.76918621      13.75987609       2.50780241      -0.00015889       0.00035825       0.00034885
Cu       9.76128758      11.73744273      13.78682053       3.06385138       0.00006222       0.00047721       0.00060102
Al       9.77552618      13.73240559      11.81443542      -2.04054339       0.00001126      -0.00074289      -0.00030964
Au       7.87330328      15.64347710       0.02109464      -0.18693481      -0.00185827      -0.00088548      -0.00135253
Au       7.80860792      17.69152175       2.09219129      -0.55401650       0.00068106      -0.00010138       0.00177436
Al       9.84309889      15.68460789       2.01499317      -2.22967661       0.00132944      -0.00005983       0.00013558
Al       9.78095857      17.64977336       0.03358768      -2.52166171       0.00088565       0.00043903      -0.00181609
Al       7.83398081      15.69180039       3.92479243      -2.33929127       0.00111916       0.00041180       0.00035453
Au       7.74377764      17.73213266       5.72894726       0.09299840      -0.00082645       0.00021488       0.00088825
Al       9.81809839      15.73347056       5.78163642      -2.16547858       0.00007069      -0.00040097       0.00155444
Cu       9.79676838      17.77976912       3.81648185       3.12135312       0.00037301       0.00061671       0.00019426
Au       7.77800414      15.67664133       7.77559751       1.06664260       0.00053723       0.00034389       0.00119914
Au       7.74241844      17.48265780       9.92289091       0.24832576       0.00061879      -0.00027565       0.00060905
Al       9.83707340      15.62164662       9.84626888      -1.96252816      -0.00024457       0.00029313       0.00160927
Al       9.79613412      17.56700982       7.82655003      -1.55029359      -0.00055723       0.00018973      -0.00029262
Cu       7.74145182      15.62284079      11.83074752       2.94379327      -0.00039431      -0.00046273      -0.00136658
Au       7.80891851      17.55936420      13.62712070      -0.22041763      -0.00108058       0.00039064      -0.00019869
Cu       9.67916238      15.61869525      13.74982551       3.06265120       0.00069939       0.00007927      -0.00046230
Al       9.85815013      17.55524432      11.81649453      -2.06036975      -0.00035331      -0.00005335       0.00052769
Cu      11.71991162       0.12960025       0.04281799       2.52812871       0.00091624      -0.00033875      -0.00069070
Cu      11.77938457       1.90761185       1.91676296       2.33057798       0.00084785       0.00037071      -0.00081791