399
Lattice="19.59262691714357 -0.0029401591670048664 0.00043227724696582155 -0.0029405439160256983 19.594541571232078 0.002722427805357169 0.0003459403246241731 0.002177382872289726 15.670877927394494" Properties=species:S:1:pos:R:3:energies:R:1:forces:R:3 energy=11.941676766823035 free_energy=11.941676766823035 stress="0.0004094210392034556 -5.611554730032647e-06 -0.00015939272613592367 -5.611554730032647e-06 1.1976153830827717e-05 -8.479242602096263e-05 -0.00015939272613592367 -8.479242602096263e-05 0.000706489106030417" pbc="T T T"
Au      -0.01752027       0.04350425       0.06287667      -1.22970927       0.00053449       0.00020459       0.00240888
Cu      -0.08217724       1.90275975       1.89276115       2.72339693      -0.00016845      -0.00137437       0.00135928
Cu       2.03343956      -0.04200836       1.95080719       3.20155847       0.00074995      -0.00094480       0.00032432
Al       1.95811427       1.93938255       0.11173761      -3.31671868      -0.00100518       0.00009909      -0.00084162
Al      -0.07214810      -0.01845005       3.85681349      -2.46454470      -0.00006195      -0.00230873       0.00055505
Al      -0.07873412       1.98107475       5.80061718      -1.87841864       0.00096442      -0.00141673      -0.00018421
Al       1.90228608      -0.00456886       5.83016659      -2.18294170       0.00031055      -0.00143476       0.00026605
Al       1.90287690       1.89216793       3.78947609      -2.80534267       0.00035941       0.00106665       0.00046870
Al      -0.07837769      -0.01974303       7.75445909      -2.47564701       0.00155938      -0.00007013      -0.00100233
Au       0.00083163       1.92968415       9.76149546      -0.01835570      -0.00033050       0.00223293      -0.00247710
Cu       1.87186883      -0.11016997       9.80809173       2.18901388      -0.00095788      -0.00043436      -0.00190607
Au       1.95133253       1.90550016       7.87971650      -0.58561268      -0.00125051       0.00155179      -0.00074047
Cu       0.03146471      -0.11737366      11.74633670       2.01261931      -0.00035738       0.00008466      -0.00074419
Cu       0.00591263       1.89180292      13.78518785       2.56995267      -0.00036669       0.00121937       0.00020282
Au       1.87756979      -0.03836212      13.67335107      -0.28084709      -0.00018750       0.00325020      -0.00056689
Au       1.89463229       1.87284541      11.69343979      -0.88245369      -0.00289149       0.00274703       0.00092248
Cu       0.02466414       3.84874710       0.09179556       2.23901350       0.00100134       0.00081065      -0.00030950
Cu      -0.08352866       5.78960947       1.85923559       2.75999641      -0.00149841      -0.00052650      -0.00137676
Cu       1.88110540       3.84500966       1.93297281       2.86846750       0.00062501       0.00123398       0.00127491
Au       1.93712605       5.78360040       0.07460042      -0.34232321      -0.00180749       0.00092116       0.00032302
Al      -0.05063456       3.86604684       3.80024501      -2.51896764       0.00070506      -0.00142203      -0.00057358
Au       0.00693757       5.75783134       5.91364525       0.13998174      -0.00039416       0.00137290       0.00026912
Au       2.02723459       3.78028244       5.81348411       0.33017647      -0.00090662      -0.00049249       0.00114173
Al       1.91562682       5.76650900       3.82552633      -2.29606076       0.00153009      -0.00012521      -0.00062234
Cu       0.11751372       3.87820874       7.83097878       3.31846548      -0.00002156       0.00117027       0.00131520
Au       0.04116278       5.84575925       9.71748484       0.46105819       0.00369259       0.00319164      -0.00288352
Cu       1.94865675       3.84693646       9.80755875       2.84677543       0.00021434       0.00002408       0.00020412
Al       1.97287661       5.86988295       7.83528384      -3.23171916      -0.00379479       0.00233156       0.00401093
Au       0.00634836       3.90613463      11.77745669       0.28784249       0.00449299      -0.00430438       0.00263153
Au      -0.03308550       5.85945362      13.85169709       0.25148016      -0.00092750       0.00268465       0.00040776
Au       1.91107628       3.84860664      13.78094660       0.16527394      -0.00234893      -0.00148281      -0.00388572
Al       1.90191546       5.94099545      11.82816904      -2.69655423      -0.00238690       0.00163647       0.00001909
Al       0.02021380       7.83096861       0.07400779      -2.94902939      -0.00034778      -0.00289012      -0.00043294
Au       0.04873871       9.78611007       2.06107341      -0.05152551       0.00072147      -0.00020940      -0.00051471
Al       1.94784543       7.83254575       1.94843076      -2.39629401       0.00180014       0.00039363      -0.00408450
Cu       1.96770794       9.83908884      -0.01235362       2.99656703       0.00070044       0.00018910       0.00198620
Al       0.06150077       7.75918358       3.95474417      -2.59895566      -0.00131252       0.00065279      -0.00073071
Al       0.05661290       9.74888746       5.92495750      -2.72556733      -0.00143389      -0.00009470       0.00109436
Cu       1.95628910       7.80550872       5.93033423       3.16173102      -0.00062730       0.00293199       0.00059381
Cu       1.92749468       9.90219726       3.93778940       3.08804595       0.00039781      -0.00173930       0.00084042
Cu      -0.00352982       7.72936124       7.75555766       3.58032336       0.00060214      -0.00189996      -0.00204255
Al       0.00736591       9.77018561       9.75764243      -2.16831775      -0.00215615       0.00055630      -0.00068240
Al       1.94869528       7.90642994       9.86516010      -2.11944919      -0.00325803      -0.00130048      -0.00310133
Al       1.97927531       9.77371321       7.91394406      -2.15710664       0.00107855      -0.00046278      -0.00280188
Au       0.16922767       9.73760486      13.60858100      -0.23610161       0.00058991      -0.00179727       0.00215340
Cu       1.96460037       7.82361632      13.77735774       2.87937566       0.00195538       0.00006738       0.00075499
Cu       2.04191801       9.93387491      11.72909122       2.80059716      -0.00184453      -0.00196035      -0.00057664
Al       0.10590264      11.82662333      -0.04975700      -3.02182557       0.00027787      -0.00060230      -0.00113068
Cu       0.08461761      13.78216999       2.01713084       2.84574890       0.00022502      -0.00194796      -0.00028812
Au       1.88437428      11.80415134       1.98995944      -1.07534381       0.00155450      -0.00059735      -0.00142857
Cu       1.98364940      13.83364222      -0.06434735       2.20047220       0.00240133      -0.00240075      -0.00133052
Cu       0.01874473      11.80227188       3.98322223       2.76145541      -0.00129611       0.00112414      -0.00173513
Au       0.02154677      13.81146915       6.08201214      -1.59981470       0.00073640       0.00061460      -0.00275745
Au       1.86316434      11.80083823       5.95245245       0.07271688      -0.00101871       0.00026646      -0.00061520
Au       1.85512626      13.80692611       3.96425814      -0.41109895      -0.00121128      -0.00029014       0.00174071
Cu       0.03754194      11.88212989       7.89898020       3.23589023      -0.00228943       0.00099035       0.00051182
Au      -0.04779217      13.79093125       9.69609690      -2.03440932       0.00170481      -0.00088217       0.00160602
Au       2.02513306      11.86450925       9.81763529      -1.43797326      -0.00131632      -0.00058409       0.00179151
Cu       1.92409003      13.82122513       7.91993300       2.66027500      -0.00152553      -0.00157635      -0.00025589
Au       0.01786118      11.80898970      11.66037987      -0.45820991       0.00070111      -0.00051786      -0.00202849
Au       0.04218311      13.82466455      13.59381806      -0.68455674       0.00116822      -0.00283358      -0.00118902
Au       2.01389628      11.87673593      13.59966786      -1.27619546       0.00412738       0.00213769       0.00166280
Cu       2.04013562      13.78360251      11.72289116       1.97251120       0.00068325      -0.00221590       0.00098155
Au       0.06405045      15.60814623      -0.00561793      -0.53587253       0.00053101      -0.00053243       0.00064622
Al      -0.00996541      17.68082398       1.98987083      -2.49246245       0.00039312      -0.00034182      -0.00102857
Cu       1.90142054      15.65825969       1.92112902       2.70951719       0.00097530       0.00195586      -0.00083181
Au       1.96691108      17.56928255       0.05676453      -1.24047015      -0.00034144      -0.00232130       0.00130711
Au       0.00477590      15.78556610       3.96983956      -0.31778044       0.00127697       0.00023272       0.00094921
Cu      -0.09916834      17.59970289       5.87718045       2.86662532       0.00098394       0.00017862      -0.00014151
Cu       1.84838505      15.76842887       5.99907867       2.61753760       0.00137970       0.00038419      -0.00049978
Al       1.96447272      17.65353485       3.93245442      -2.63107106       0.00114991       0.00051585       0.00076915
Cu       0.01641127      15.72993019       7.91304362       2.24277639       0.00141060      -0.00124855       0.00102234
Cu      -0.00077154      17.60088979       9.83156765       2.16673131       0.00178792      -0.00139213      -0.00021444
Au       1.93577607      15.71462058       9.84545489      -2.45762094      -0.00395458      -0.00295831      -0.00028972
Au       1.84638202      17.64503966       7.84383930      -1.57226638      -0.00026233       0.00168240       0.00013752
Al      -0.06606574      15.70218208      11.67896211      -4.11239302       0.00225036      -0.00041911      -0.00173262
Au      -0.00478379      17.57888509      13.65097815      -1.36864054      -0.00114695      -0.00198047      -0.00053142
Cu       1.98620160      15.65486862      13.65802774       1.87632203       0.00052131       0.00039043      -0.00041472
Cu       1.90742731      17.62444171      11.69646497       2.01328946       0.00015793      -0.00111014      -0.00046799
Au       3.86635732      -0.04782233       0.07556945       0.11640279      -0.00275636       0.00170917       0.00288380
Cu       3.90502132       1.93568428       2.06423809       2.58069963       0.00022768       0.00022167       0.00025647
Al       5.80190225      -0.03604142       2.00151597      -3.47332058      -0.00004549       0.00083050       0.00174286
Al       5.79091307       1.94724796       0.03277969      -2.29859998      -0.00097791       0.00101449       0.00103057
Au       3.92686530      -0.03114841       3.91795437      -1.42400250       0.00138022       0.00042561       0.00047708
Cu       3.94231312       1.85982642       5.84548230       2.67129303      -0.00064708       0.00028914       0.00053243
Cu       5.80774355      -0.01312132       5.79218168       1.87553217      -0.00038528      -0.00008338       0.00069764
Cu       5.80882422       1.88363238       3.95670066       1.75189776      -0.00055774       0.00020792       0.00082475
Au       3.85752122      -0.03713251       7.87311043      -0.97164803      -0.00122752      -0.00115592       0.00033091
Cu       3.82370340       1.93659935       9.80646184       2.86034715      -0.00112142       0.00254342      -0.00108038
Al       5.83194092       0.00547385       9.84666428      -2.95836941      -0.00126949      -0.00197651       0.00126086
Au       5.86784888       1.84984722       7.76442258      -0.29147607      -0.00012174       0.00198077       0.00089409
Al       3.87085057      -0.06077291      11.65409034      -3.29797277      -0.00040827       0.00060796       0.00031444
Al       3.91586322       1.91370245      13.69960553      -2.31982829      -0.00092970       0.00251799      -0.00036044
Au       5.81447793      -0.09572468      13.64087212       0.27259632       0.00118718       0.00135231      -0.00207481
Cu       5.85701335       1.96601513      11.77916397       3.09630557      -0.00121092       0.00140681       0.00027885
Al       3.93696789       3.85612292       0.07030491      -2.53379977       0.00135371       0.00064424      -0.00105550
Al       3.91408254       5.77551236       2.01593103      -2.26707438      -0.00019452       0.00079401       0.00050558
Cu       5.78285637       3.74158799       2.11925094       2.95340333      -0.00011592       0.00056258      -0.00057776
Au       5.78430236       5.90176285      -0.05563343      -0.20370724       0.00344664      -0.00243602      -0.00189523
Cu       3.89056569       3.72250744       3.87544935       2.40604039      -0.00040464       0.00120072       0.00095362
Au       3.82548481       5.90445302       5.83978946       0.53461758       0.00282865       0.00251881       0.00107296
Al       5.77377875       3.87056208       5.83033842      -3.01075057      -0.00079318       0.00104896       0.00064921
Al       5.80424010       5.87989831       3.90922976      -2.36279194      -0.00092461       0.00008815      -0.00060733
Au       3.88702559       3.81631563       7.88223861       0.13049132       0.00043362       0.00109003       0.00191638
Au       3.84862815       5.88058427       9.81617807       0.95129926       0.00019276       0.00066198      -0.00299276
Al       5.86381794       3.82124335       9.80985753      -2.35773026      -0.00220165       0.00139893       0.00038677
Al       5.82799488       5.88434387       7.85477603      -2.04882925      -0.00066081       0.00194893       0.00039525
Au       3.88440821       3.85879362      11.76102735      -0.32450608       0.00003419      -0.00001791       0.00117931
Cu       3.86291966       5.88461003      13.75676175       2.74898934       0.00066624       0.00016349      -0.00042347
Cu       5.79089678       3.95375025      13.67220245       3.26435062      -0.00037347       0.00090426       0.00239612
Al       5.80184259       5.89999401      11.78666608      -2.60457915      -0.00001259       0.00142852       0.00276153
Au       3.83487459       7.87634277      -0.06655079      -0.77860722      -0.00401446       0.00080803      -0.00021400
Cu       3.80495131       9.86490792       1.90872805       2.80549584       0.00192731      -0.00167046       0.00060757
Au       5.79691442       7.90267798       1.96333607       0.54254099       0.00201133      -0.00144068       0.00179959
Au       5.82068253       9.82849984      -0.01239949      -0.32145989       0.00160071       0.00028485      -0.00223879
Au       3.75512662       7.96868431       3.92598279       0.49358981      -0.00003585      -0.00204484       0.00141036
Al       3.83069164       9.83462354       5.94813385      -2.31576005       0.00099118      -0.00032836       0.00195542
Au       5.80543782       7.87567791       5.89054390       0.94732215      -0.00046771      -0.00079548       0.00001977
Al       5.85950851       9.82730025       3.91446720      -2.71260492       0.00401628       0.00039072       0.00051763
Cu       3.88508450       7.83090422       7.84923051       3.39769681      -0.00110767       0.00207963       0.00078744
Cu       3.90679014       9.90396528       9.97545585       2.40779153      -0.00099057       0.00247935       0.00080833
Au       5.72982000       7.98599709       9.82314486      -0.03920454       0.00324121      -0.00037476      -0.00266850
Al       5.77614620       9.87851731       7.90955585      -2.53953880       0.00067373      -0.00163210       0.00138557
Au       3.88780095       7.91899943      11.88625221      -0.71267627      -0.00046193       0.00257724       0.00470025
Al       3.88335877       9.88648508      13.67742173      -3.72833076      -0.00120559      -0.00108937      -0.00074851
Cu       5.85390166       7.87822256      13.74112576       2.74532841       0.00049613      -0.00001167      -0.00248434
Cu       5.80230580       9.88146924      11.74345134       2.20667198       0.00073693       0.00045218       0.00181193
Au       3.79835033      11.84524012       0.01039502      -0.61401332      -0.00179027      -0.00024938      -0.00036759
Al       3.84653570      13.85189976       1.98872211      -3.26037845       0.00161326      -0.00073276       0.00010492
Au       5.83740966      11.77463461       1.96360246       0.49788512       0.00330699       0.00065546       0.00078940
Au       5.76637933      13.84228785       0.00942482      -0.28066292       0.00182531       0.00127295       0.00080140
Au       3.84157329      11.75061637       3.92523258       0.34961388      -0.00155912       0.00039022       0.00047777
Al       3.82831244      13.77869325       5.91257199      -2.21719256       0.00022085      -0.00129152       0.00023533
Au       5.93283933      11.83192694       5.86266779       0.75688121       0.00127209      -0.00017281       0.00090687
Au       5.91228509      13.75029325       3.90384644       0.72057023      -0.00003715      -0.00021490      -0.00014877
Al       3.90327673      11.84532961       7.91371770      -2.24536787       0.00105745      -0.00055032       0.00058566
Cu       3.83459181      13.82662952       9.85436899       2.20363278       0.00084337      -0.00176081      -0.00092564
Cu       5.75298166      11.75472346       9.93973834       2.36806002       0.00015525      -0.00171372       0.00136758
Al       5.80332552      13.75557544       7.95184746      -2.41297196       0.00044596      -0.00006772      -0.00052563
Cu       3.89577582      11.87806264      11.69250996       1.82384002       0.00118127      -0.00105702      -0.00059694
Cu       3.79266311      13.81802578      13.66972696       1.88834114      -0.00102806      -0.00273431      -0.00073824
Au       5.76965226      11.92307464      13.65332464      -0.56610189       0.00072234      -0.00084773      -0.00087494
Au       5.70234432      13.82400223      11.67636843      -1.70850193       0.00013099      -0.00145657       0.00122454
Cu       3.78752351      15.68000155      -0.00089181       2.12129619       0.00135916       0.00213668       0.00125533
Cu       3.86480962      17.54994113       1.94335720       2.42469026       0.00004008       0.00022902       0.00146051
Cu       5.82822796      15.78058852       1.99034714       2.88217045      -0.00111717       0.00152779       0.00010032
Au       5.77487185      17.51692474       0.04632351      -0.55202454       0.00177015      -0.00103852       0.00277892
Al       3.86050152      15.77464617       3.96130774      -2.67810409       0.00047057       0.00166832       0.00025860
Cu       3.91653739      17.69314763       5.93390795       2.89779276       0.00158129      -0.00005708      -0.00039724
Al       5.82801628      15.69156562       5.84691444      -2.31633901       0.00026444       0.00129479      -0.00062977
Cu       5.78773847      17.69037408       3.91872082       2.60113004      -0.00100333       0.00049712       0.00034469
Au       3.82561908      15.71936559       7.86814844      -1.00887156       0.00193874      -0.00064599      -0.00129816
Cu       3.82203385      17.57997565       9.81479946       2.19516480       0.00108052       0.00230144       0.00039830
Cu       5.69172058      15.76350922       9.86023801       2.23234161       0.00111791       0.00038556      -0.00062706
Au       5.80431921      17.63809765       7.85116087      -0.27100652       0.00011009       0.00072866      -0.00060650
Cu       3.79744335      15.71305991      11.69447115       1.55571431       0.00183370       0.00082257       0.00163960
Au       3.81086336      17.52956128      13.62093928      -1.13575990      -0.00129399      -0.00409550      -0.00150607
Al       5.77176964      15.63597742      13.66679558      -3.80799194       0.00070113       0.00081674      -0.00004302
Cu       5.78694982      17.51081278      11.72000010       2.48769466      -0.00197305       0.00040819      -0.00050895
Au       7.82176081      -0.03843662       0.00317859       0.16597324      -0.00063144       0.00022250       0.00017446
Au       7.76200212       1.88017147       1.99139864      -0.44138740      -0.00135635       0.00003147       0.00071089
Cu       9.77098849       0.04673263       1.94195153       2.32494582       0.00008190       0.00009519       0.00009231
Cu       9.78649617       1.85700257       0.05984587       2.57535550      -0.00070959      -0.00065153       0.00089611
Cu       7.74914727       0.03104981       3.92330505       2.22817448      -0.00170085       0.00052939       0.00162966
Cu       7.75209311       1.87515348       5.78163901       2.50125404      -0.00144537       0.00051251       0.00053317
Al       9.78827190      -0.04508005       5.82044583      -2.56070104      -0.00207205       0.00018821      -0.00068169
Au       9.76394717       1.87344040       3.85070381      -0.65838357       0.00001552      -0.00226032       0.00024412
Al       7.82837212      -0.05508172       7.84810928      -2.28813160      -0.00044191       0.00030000      -0.00019177
Cu       7.83649794       1.94780002       9.79524819       3.44910661       0.00038238       0.00036526       0.00005217
Al       9.80537615      -0.04647358       9.82586246      -1.74774976      -0.00011282       0.00084069      -0.00064506
Au       9.76870950       1.93326970       7.79769346       0.77529982      -0.00011946       0.00021862      -0.00029262
Au       7.80165168       0.04410448      11.72575156       0.07288862      -0.00045733       0.00040840       0.00136932
Au       7.74534975       1.99441333      13.73160043       0.03078931      -0.00032195      -0.00217128      -0.00084842
Au       9.85116159       0.04230771      13.76334760       0.10068501      -0.00114658       0.00065427       0.00025999
Au       9.84420098       2.03123325      11.77010250       0.73610657       0.00008815       0.00112252       0.00015416
Al       7.71557676       3.91866882       0.07290849      -2.36274121       0.00051806       0.00068912       0.00104004
Al       7.74305431       5.92548791       1.98154078      -2.51502453       0.00173275      -0.00086447       0.00102154
Al       9.75519429       3.90178779       1.91023634      -2.25350622      -0.00107446      -0.00155382       0.00168956
Au       9.75297927       6.07187977       0.07013155       0.64385823      -0.00026262      -0.00057867       0.00075721
Au       7.73249987       3.84037219       3.92287544       0.00947240      -0.00126273      -0.00132026       0.00030099
Au       7.83634458       5.97220511       5.85616247       0.33092735       0.00107993       0.00043145       0.00104151
Au       9.79555436       3.90868182       5.80402248      -0.28794597       0.00139961      -0.00161085       0.00130605
Au       9.78269758       5.96275369       3.89958342      -0.49521051       0.00003482      -0.00097988      -0.00029058
Au       7.80656610       3.84748455       7.77758412       0.73532989      -0.00005004      -0.00037953       0.00058021
Al       7.80858562       5.89607881       9.77779751      -1.30194508      -0.00032496       0.00138738       0.00047910
Al       9.81931288       3.92988549       9.75809600      -2.25334436       0.00022354       0.00072081      -0.00129189
Au       9.87770985       5.95144773       7.73975251       0.63034911       0.00244187      -0.00032287       0.00106464
Al       7.77542364       3.91165515      11.74776674      -2.34956247      -0.00119293       0.00156034       0.00061578
Au       7.76621482       5.93386737      13.73700215       0.18965429      -0.00406054       0.00003558       0.00148893
Au       9.78647198       3.91728839      13.84731783       0.52800127       0.00099899       0.00005691      -0.00004933
Au       9.82350453       5.83640159      11.77853939       1.36712545       0.00228164       0.00048043       0.00047051
Cu       7.71905257       7.87501516      -0.02021569       2.97066003       0.00140872       0.00064031       0.00108702
Al       7.83990043       9.82761784       1.99859995      -3.23103984       0.00081409      -0.00074213      -0.00004852
Cu       9.78448788       7.88182862       1.99572130       2.94541976      -0.00105670      -0.00056815      -0.00010231
Au       9.72811202       9.75499007       0.04657972      -0.83608817       0.00170608      -0.00013162       0.00064230
Cu       7.87804248       7.86434877       3.95701008       3.09516139       0.00171069       0.00096381      -0.00065975
Au       7.84984217       9.77553979       5.84776439       0.39372523       0.00163836       0.00002858       0.00118011
Cu       9.83910966       7.84460527       5.79960717       2.99712732      -0.00003184       0.00024160       0.00044564
Au       9.79396012       9.77675349       3.91500153      -0.87706039       0.00138958       0.00020167       0.00091361
Al       7.81654840       7.92691515       7.91765262      -1.88434509      -0.00088468       0.00094715       0.00163102
Cu       7.72709676       9.92561511       9.91221828       3.03985961       0.00330588      -0.00117965       0.00011550
Al       9.86126381       7.88550085       9.80906557      -1.77333856       0.00327331       0.00025165       0.00018391
Al       9.84826502       9.75395190       7.84611700      -2.21013369       0.00105091      -0.00019217      -0.00023783
Au       7.74214611       7.94143273      11.71502210       0.14432091      -0.00022094       0.00070082       0.00163337
Au       7.74292184       9.83922464      13.69359757      -0.55298835      -0.00121731      -0.00088275      -0.00064807
Al       9.78555967       7.88434072      13.68756706      -2.63892552       0.00061316      -0.00015607       0.00066938
Au       9.81881209       9.90464077      11.73071310       0.53595138       0.00082474      -0.00015531      -0.00013244
Au       7.86483247      11.86377116      -0.04778083      -0.82552368       0.00013485       0.00035841       0.00112796
Al       7.86543359      13.72031217       1.96141124      -2.87332717       0.00037703       0.00092419       0.00057543
Cu       9.83017330      11.77957744       1.99257426       2.67315533      -0.00010134       0.00088661       0.00037040
Cu       9.76272494      13.68675458      -0.05848833       2.60391159      -0.00118653       0.00086825       0.00084532
Cu       7.87104531      11.81260204       3.94966266       3.05332002       0.00023432       0.00082967       0.00023526
Cu       7.86372974      13.66811066       5.88589899       3.30439226       0.00063204       0.00078159      -0.00074592
Al       9.80935290      11.73759021       5.91649856      -2.72285144       0.00151482       0.00205423      -0.00154657
Au       9.82231923      13.65671120       3.91199758      -0.03244919      -0.00079094       0.00087635       0.00023371
Au       7.77594683      11.77117112       7.94661631       0.48979315       0.00211694       0.00013829      -0.00129359
Al       7.75609897      13.80408204       9.85168122      -2.31815965       0.00150365       0.00097305       0.00071664
Au       9.86234166      11.79783994       9.76821814       0.50663284       0.00159365      -0.00041766       0.00157673
Au       9.83467339      13.78248063       7.82653068       0.48184710       0.00121140       0.00220020      -0.00086137
Al       7.78328886      11.85994959      11.77884794      -3.07085981       0.00055542       0.00018939       0.00113900
Cu       7.83601485      13.77288705      13.75777460       2.51819725       0.00024140      -0.00057714       0.00101537
Cu       9.76057445      11.74290859      13.78965382       3.06368045       0.00046466      -0.00025295       0.00073608
Al       9.77564496      13.73221366      11.82114683      -2.04176718       0.00008167       0.00019500      -0.00005507
Au       7.86136363      15.63731571       0.01661302      -0.19581086       0.00012376       0.00161792       0.00133388
Au       7.80565665      17.68082553       2.08616970      -0.54064753      -0.00127459       0.00011244       0.00070832
Al       9.84335309      15.67581743       2.00613959      -2.22912403      -0.00011390       0.00089199       0.00007573
Al       9.78227452      17.63673562       0.02716864      -2.51982755      -0.00039541       0.00084037       0.00054170
Al       7.83398130      15.68521086       3.92214013      -2.33731917       0.00001886       0.00176171      -0.00005630
Au       7.74628670      17.72586333       5.72905575       0.09401443      -0.00096904       0.00091861      -0.00016695
Al       9.81862994      15.72759399       5.78310054      -2.15698793      -0.00118644       0.00080817      -0.00020274
Cu       9.79672279      17.77144257       3.81231548       3.10508644      -0.00113516       0.00111530      -0.00006545
Au       7.77579214      15.67065844       7.77897122       1.06818145       0.00146244       0.00081104       0.00007041
Au       7.73653814      17.47297013       9.92868722       0.24524681       0.00012535       0.00034718       0.00027528
Al       9.83850553      15.61762136       9.85388725      -1.94989728      -0.00103948       0.00070055      -0.00023000
Al       9.79896888      17.55667594       7.83230615      -1.54515077      -0.00209448       0.00082559       0.00022135
Cu       7.73031030      15.61612903      11.83569368       2.94532827       0.00080121       0.00137116      -0.00022753
Au       7.79680825      17.54914314      13.62699782      -0.22974451       0.00024187       0.00009098       0.00012063
Cu       9.67956384      15.61270872      13.75394801       3.05796774      -0.00104048       0.00129732      -0.00013181
Al       9.85883943      17.54421471      11.82391246      -2.05727705      -0.00074190       0.00102328       0.00014566
Cu      11.71766697       0.12299614       0.04167019       2.53464984      -0.00065492      -0.00041052       0.00054831
Cu      11.77544128       1.90586944       1.91336062       2.32724048      -0.00073870      -0.00104112       0.00090470