399
Lattice="19.59262691714357 -0.0029401591670048664 0.00043227724696582155 -0.0029405439160256983 19.594541571232078 0.002722427805357169 0.0003459403246241731 0.002177382872289726 15.670877927394494" Properties=species:S:1:pos:R:3:energies:R:1:forces:R:3 energy=11.986911763412424 free_energy=11.986911763412424 stress="0.0006050948564611438 0.00015650059520798968 -0.00015488975790725533 0.00015650059520798968 -0.00019641680513578257 -0.00017460943124172714 -0.00015488975790725533 -0.00017460943124172714 0.0007435444402307976" pbc="T T T"
Au      -0.01887339       0.04611611       0.06066539      -1.22882081       0.00048980      -0.00026433      -0.00084099
Cu      -0.08227390       1.90114996       1.89379491       2.72281151       0.00087869      -0.00080986      -0.00047306
Cu       2.03083375      -0.04186723       1.94799057       3.20602383       0.00224708       0.00083992       0.00048954
Al       1.95708656       1.94126490       0.10644420      -3.31855303      -0.00043124      -0.00096378       0.00132002
Al      -0.07502589      -0.02980485       3.84932341      -2.46720331       0.00075129      -0.00246503      -0.00036131
Al      -0.07935180       1.94490685       5.77918135      -1.91022606       0.00156576       0.00120174      -0.00030418
Al       1.90630915      -0.02310054       5.82135225      -2.19176737       0.00003186      -0.00107804       0.00152015
Al       1.90222584       1.88557507       3.78949921      -2.81459580      -0.00023805      -0.00028990       0.00017136
Al      -0.07855045      -0.03269458       7.74845352      -2.48746192       0.00039096      -0.00066966       0.00011096
Au       0.00579280       1.90527064       9.75395870      -0.03283934      -0.00177512      -0.00289408      -0.00250424
Cu       1.87877851      -0.11885254       9.80796025       2.18528496       0.00133132      -0.00050678       0.00082949
Au       1.95522708       1.87780223       7.86604855      -0.61849913       0.00394047      -0.00115416       0.00024374
Cu       0.03122178      -0.12302180      11.74507467       2.01500861       0.00010701       0.00030619      -0.00035486
Cu       0.01011988       1.89801557      13.78071805       2.57776724      -0.00073318      -0.00168771      -0.00070339
Au       1.87674490      -0.04096840      13.67512696      -0.27660947       0.00166199       0.00028393      -0.00070382
Au       1.88991848       1.86669451      11.69683394      -0.91133179       0.00206398      -0.00393191       0.00148017
Cu       0.02445063       3.84591400       0.09019461       2.23125623       0.00013388      -0.00131524      -0.00038156
Cu      -0.08065462       5.78812826       1.86085201       2.75637965      -0.00042583      -0.00020169      -0.00014251
Cu       1.88058382       3.84039805       1.93299509       2.86697900      -0.00079104      -0.00009379       0.00150355
Au       1.93393658       5.77419535       0.07049918      -0.35405090      -0.00086699       0.00011517      -0.00055199
Al      -0.04870317       3.86126772       3.80318072      -2.53273266       0.00212117      -0.00029990      -0.00084452
Au       0.02794798       5.77059948       5.90112033       0.18967076       0.00046358      -0.00098593       0.00342878
Au       2.01540039       3.77210210       5.81963732       0.27381456       0.00035632       0.00223498       0.00080551
Al       1.92691846       5.75773336       3.82800958      -2.29062076      -0.00115691       0.00097388      -0.00324032
Cu       0.09718083       3.80711989       7.77212870       3.31353153       0.00000138      -0.00178866       0.00153040
Cu       1.97151820       3.77648170       9.80660218       2.86694514       0.00230033      -0.00128296      -0.00129563
Al       1.79752915       5.83046071       8.00468384      -2.86473208       0.00566356      -0.00011505      -0.00526818
Au       0.02421659       3.92860780      11.73735249       0.38274361       0.00192454      -0.00213808       0.00293809
Au      -0.02779741       5.84990214      13.83313937       0.38961998       0.00271931      -0.00024939       0.00303552
Au       1.91179869       3.84423101      13.76417732       0.16159349      -0.00114240       0.00164649       0.00072431
Al       1.94927096       5.86130182      11.75004969      -2.44208124       0.00367740       0.00105085       0.00033170
Al       0.01826138       7.82349976       0.06370543      -2.95887383      -0.00092892      -0.00019304      -0.00047753
Au       0.05051579       9.78787416       2.05663833      -0.06428501       0.00016964       0.00157839      -0.00038400
Al       1.94942168       7.82574335       1.94609050      -2.39932356       0.00104001       0.00103074       0.00098732
Cu       1.97914962       9.84372429       0.01500068       3.03018315       0.00058320       0.00145222      -0.00068306
Al       0.07491630       7.76668662       3.95513222      -2.59323129       0.00012324       0.00025088      -0.00136409
Al       0.05441607       9.76722838       5.91699977      -2.74616384      -0.00137581       0.00214398       0.00009611
Cu       1.93419173       7.79783782       5.98194652       3.12226079      -0.00117460      -0.00142893       0.00224110
Cu       1.92974110       9.90527493       3.93576615       3.09722564      -0.00068358       0.00203815      -0.00097820
Cu      -0.01401826       7.78260572       7.75811772       3.52140809       0.00078139       0.00215137      -0.00104667
Al       0.00657577       9.83494647       9.71321779      -2.22224518       0.00159820      -0.00024186      -0.00134890
Al       1.97432927       7.90945585       9.79121771      -1.93191543       0.00145874       0.00399930       0.00206485
Al       1.98545779       9.81064434       7.90266797      -2.14815846       0.00159820       0.00049240       0.00205797
Al       0.08199178       7.84126301      11.71851176      -1.88810114       0.00023920       0.00492208       0.00435400
Au       0.17646005       9.78866095      13.68240950       0.00169751      -0.00165581      -0.00236471      -0.00197789
Cu       1.95864354       7.80106306      13.76680120       3.06556609      -0.00000103      -0.00196903      -0.00170870
Cu       2.01777520       9.93089537      11.72241122       2.94763092      -0.00175369      -0.00099691      -0.00034524
Al       0.10376544      11.85374643      -0.02985615      -3.03100302       0.00034507       0.00113146       0.00046742
Cu       0.08363318      13.78729799       2.02261927       2.85530734      -0.00058150      -0.00016047       0.00012322
Au       1.88988994      11.80781756       1.99553035      -1.08004115       0.00045625      -0.00019925       0.00011088
Cu       1.99307940      13.83959812      -0.06245155       2.19994373       0.00205040      -0.00048637      -0.00007499
Cu       0.01789956      11.81029153       3.97733789       2.75911535      -0.00007021       0.00036896      -0.00035455
Au       0.02022654      13.81954419       6.07255287      -1.60824756      -0.00132737      -0.00029286      -0.00016571
Au       1.86535749      11.81300031       5.94510524       0.08211250       0.00165578       0.00238552       0.00074983
Au       1.86165567      13.81533927       3.96180800      -0.41291584      -0.00100321       0.00034490       0.00005407
Cu       0.02960525      11.90378327       7.88569180       3.25886556       0.00037973       0.00147304       0.00052334
Au      -0.04937304      13.79158672       9.70099913      -2.02286211      -0.00097785      -0.00029483      -0.00098723
Au       2.02585471      11.87782013       9.82186635      -1.42357006       0.00026971       0.00234639       0.00060152
Cu       1.92210775      13.82532687       7.91664078       2.65075912       0.00064765      -0.00002911       0.00043454
Au       0.01422642      11.80906909      11.66876556      -0.44868374      -0.00089832      -0.00030605      -0.00039372
Au       0.04084040      13.82806732      13.59539544      -0.67683986       0.00035870       0.00099750       0.00056012
Au       2.02452429      11.89564003      13.60306647      -1.27701014       0.00013333       0.00128948       0.00171471
Cu       2.04272139      13.79000673      11.72576451       1.98539813       0.00209078       0.00123914      -0.00023421
Au       0.06493295      15.60739926      -0.00371772      -0.52822864       0.00039369       0.00026045       0.00179893
Al      -0.01202611      17.67988775       1.98416364      -2.48766133      -0.00008597       0.00091309       0.00065739
Cu       1.90669353      15.65893027       1.91905693       2.71313119       0.00021984      -0.00047594      -0.00090234
Au       1.96781244      17.56904499       0.05704576      -1.24302718       0.00153750      -0.00051366       0.00078385
Au       0.00347619      15.78801112       3.96464186      -0.32156582      -0.00010814       0.00004348       0.00017557
Cu      -0.09906288      17.59525164       5.87446754       2.87594731       0.00070219      -0.00237165       0.00032738
Cu       1.85276382      15.77042811       5.99551504       2.61772831      -0.00023922      -0.00165603      -0.00107659
Al       1.96776161      17.64795240       3.92364454      -2.63507069       0.00019986      -0.00053399      -0.00076199
Cu       0.01658660      15.72754864       7.91324148       2.23861922      -0.00068381       0.00012624      -0.00057616
Cu       0.00095553      17.59894734       9.83034208       2.16843787       0.00066078      -0.00309283       0.00025104
Au       1.93782554      15.71317288       9.84574880      -2.45738402      -0.00018515      -0.00031144       0.00183343
Au       1.84863036      17.63994066       7.84350990      -1.56752302       0.00038710       0.00002580      -0.00002608
Al      -0.06472964      15.70281701      11.67898104      -4.11278523      -0.00010788       0.00114982       0.00103939
Au      -0.00577722      17.57704648      13.65198757      -1.36470086      -0.00110243      -0.00151764      -0.00085348
Cu       1.98800587      15.65600980      13.66015016       1.87542695       0.00288106       0.00009419      -0.00052340
Cu       1.91014368      17.62139933      11.69890846       2.01124729      -0.00014446      -0.00040588      -0.00133168
Au       3.86686990      -0.04630436       0.07827094       0.11060542      -0.00166311      -0.00048786      -0.00045967
Cu       3.90176646       1.93791135       2.06339093       2.57775175       0.00034996      -0.00119854       0.00036232
Al       5.80385547      -0.03126424       2.00313232      -3.47226081      -0.00063489      -0.00044510       0.00071502
Al       5.79209186       1.94989667       0.03596323      -2.29719697      -0.00059102       0.00031876      -0.00041364
Au       3.92827150      -0.03321756       3.91479192      -1.41988734      -0.00011135       0.00017805      -0.00006723
Cu       3.93746122       1.85476939       5.84499031       2.67501320       0.00001876      -0.00098715      -0.00107238
Cu       5.80795425      -0.01455837       5.79058191       1.87753220       0.00050244      -0.00077315       0.00037643
Cu       5.80321175       1.88797174       3.96058467       1.74990290       0.00026572      -0.00098433       0.00056571
Au       3.86661621      -0.05155599       7.86606155      -0.98507592      -0.00214390      -0.00096013       0.00022998
Cu       3.83214235       1.91446160       9.79828495       2.85151495       0.00027704      -0.00031179      -0.00036494
Al       5.83539568       0.00106582       9.84528188      -2.97196725       0.00016027       0.00120616       0.00069435
Au       5.86286713       1.85114346       7.76081665      -0.29825788      -0.00265644      -0.00009040       0.00132979
Al       3.87445308      -0.06333158      11.65817815      -3.30346050      -0.00208567       0.00031271      -0.00124375
Al       3.91851258       1.90907472      13.70171176      -2.31391597      -0.00069057       0.00055739      -0.00143893
Au       5.81843730      -0.09594702      13.64462333       0.27074061       0.00187613       0.00081653      -0.00221179
Cu       5.86787455       1.95699286      11.77867862       3.12202598      -0.00076836       0.00009511       0.00058317
Al       3.93637097       3.85526961       0.06317583      -2.52760104      -0.00208691      -0.00150861       0.00043112
Al       3.91042050       5.77062991       2.00844915      -2.25717706      -0.00108705       0.00104933      -0.00010633
Cu       5.77579864       3.74493047       2.12386608       2.94893646       0.00034721      -0.00149314      -0.00090464
Au       5.77973880       5.90457020      -0.06223542      -0.20261197       0.00015948       0.00061836      -0.00007969
Cu       3.88001838       3.71873649       3.88074902       2.40738223      -0.00033949       0.00004984      -0.00108983
Au       3.76365629       5.91077589       5.92450392       0.38606325      -0.00212515      -0.00124495       0.00274947
Al       5.75354470       3.87944058       5.83783710      -2.99101170      -0.00031323      -0.00038309       0.00112241
Al       5.76126342       5.87583172       3.93739679      -2.34948866       0.00100589       0.00111572      -0.00043694
Au       3.86895461       3.81535343       7.88510982       0.08170859      -0.00117423       0.00191737      -0.00170998
Au       3.88053627       5.86864617       9.79026899       1.00943175      -0.00168067       0.00092437      -0.00167553
Al       5.87167254       3.81141808       9.80112699      -2.36411154      -0.00034287      -0.00038368      -0.00155968
Al       5.84355211       5.88071208       7.85201227      -2.03710502      -0.00175935      -0.00049516      -0.00207153
Au       3.90868556       3.83245956      11.75101617      -0.32221933      -0.00078428      -0.00012403       0.00236619
Cu       3.85358317       5.87960033      13.74530461       2.73433806      -0.00207414      -0.00014844       0.00041756
Cu       5.79375471       3.95357412      13.67433520       3.27717844      -0.00004259      -0.00057837      -0.00098314
Al       5.79634242       5.90338396      11.78774155      -2.61333409      -0.00224272       0.00072550       0.00028441
Au       3.82637309       7.87035383      -0.07501550      -0.76932705      -0.00065273      -0.00042016       0.00177486
Cu       3.80727473       9.85641295       1.92304976       2.78681098       0.00007322       0.00102120      -0.00050747
Au       5.77795229       7.89510760       1.97144451       0.54296763      -0.00240006       0.00137516       0.00109924
Au       5.81182577       9.81911478      -0.01340842      -0.32864097       0.00017514      -0.00134352       0.00222461
Au       3.73208943       7.94989488       3.95416232       0.52872500       0.00217969       0.00135476      -0.00365129
Al       3.82553769       9.83425840       5.94973639      -2.30112309       0.00089189      -0.00021912      -0.00078579
Au       5.78807713       7.86561790       5.90167509       0.95777456       0.00331807       0.00027311       0.00013959
Al       5.84932715       9.81487014       3.92152019      -2.71259605       0.00123847       0.00093114      -0.00172347
Cu       3.86739683       7.81957539       7.85154125       3.39929294      -0.00077052      -0.00348079       0.00041464
Cu       3.89918713       9.91087371       9.98016293       2.41588508      -0.00179066      -0.00093321       0.00123958
Au       5.72505403       7.99087257       9.82577600      -0.03868008      -0.00147299       0.00144286      -0.00001255
Al       5.76876000       9.87561919       7.91062770      -2.52738054      -0.00256814       0.00234352      -0.00014487
Au       3.85219543       7.91324088      11.87006369      -0.68639194      -0.00243582      -0.00057623      -0.00193171
Al       3.86380713       9.87936448      13.67117658      -3.72562341       0.00060419      -0.00100395      -0.00066021
Cu       5.84106952       7.87931709      13.72854954       2.72604922      -0.00152774      -0.00024870       0.00110600
Cu       5.79507425       9.87403437      11.74864237       2.19527912       0.00009558       0.00081529       0.00029431
Au       3.80377570      11.84215741       0.01542732      -0.60602274      -0.00121786       0.00082764      -0.00032550
Al       3.85479293      13.85165736       1.98837109      -3.26104661       0.00003678       0.00044156       0.00120059
Au       5.84106807      11.76669798       1.96625347       0.49187368       0.00016204       0.00204032       0.00009998
Au       5.77030708      13.83948728       0.00840774      -0.28448768       0.00201064      -0.00044750      -0.00055127
Au       3.84629258      11.75299032       3.92752311       0.35195199       0.00113944      -0.00028334      -0.00125108
Al       3.83534901      13.78303613       5.91109610      -2.21490396      -0.00064512      -0.00051938       0.00109769
Au       5.93473075      11.82897316       5.86341835       0.75398097       0.00170786       0.00036433      -0.00051054
Au       5.91779139      13.74831383       3.90337324       0.72038109       0.00072629      -0.00174873       0.00059763
Al       3.90809052      11.85528339       7.91475563      -2.24195511       0.00075382       0.00237098      -0.00003450
Cu       3.84082667      13.83018577       9.85681801       2.21057945       0.00104432      -0.00140893       0.00053640
Cu       5.75378400      11.75102465       9.94315741       2.36071905       0.00121034       0.00056126       0.00102305
Al       5.81018737      13.75738193       7.95183179      -2.40819397       0.00009327      -0.00071368       0.00157651
Cu       3.89613892      11.87875987      11.69381626       1.83639896       0.00107926       0.00108265      -0.00028192
Cu       3.80167790      13.82566237      13.67190104       1.90343440       0.00235696       0.00076890       0.00087004
Au       5.76544675      11.91428962      13.65458253      -0.57043834       0.00034187       0.00000658       0.00031127
Au       5.70639522      13.82215963      11.68149518      -1.70971916       0.00190032      -0.00001445       0.00041306
Cu       3.79525157      15.68455810       0.00237204       2.12146816       0.00131588      -0.00126468      -0.00069902
Cu       3.86844421      17.55206561       1.94266856       2.43428447       0.00043705      -0.00022823      -0.00049009
Cu       5.83167259      15.78092050       1.98928241       2.88659448       0.00265539       0.00027037      -0.00068500
Au       5.77945074      17.52121435       0.04966781      -0.55655739       0.00140461      -0.00117965      -0.00108292
Al       3.86901057      15.77580742       3.95812291      -2.68760644       0.00068496      -0.00163135       0.00091842
Cu       3.92340514      17.68503267       5.92885599       2.90163185      -0.00058438       0.00061615       0.00114493
Al       5.83570837      15.69008854       5.84596551      -2.31900860      -0.00057132      -0.00098381       0.00028558
Cu       5.79073073      17.69090700       3.91743399       2.60575411       0.00207363       0.00099704       0.00044113
Au       3.82970244      15.71791192       7.86901751      -1.00583881       0.00230093      -0.00142734      -0.00022322
Cu       3.82677819      17.57738711       9.81627201       2.19066626       0.00049796      -0.00078509       0.00069380
Cu       5.69777662      15.76219001       9.86361634       2.22785276       0.00058874      -0.00010903      -0.00053755
Au       5.81259632      17.63110453       7.85090922      -0.25826726       0.00006528      -0.00014775       0.00004929
Cu       3.80235626      15.71462264      11.69598097       1.54891625       0.00136383      -0.00007542       0.00121109
Au       3.81384143      17.52927415      13.62394827      -1.13657496       0.00098876      -0.00205027      -0.00160937
Al       5.77822511      15.63999932      13.66934980      -3.81280029       0.00104335      -0.00017070       0.00000341
Cu       5.79056283      17.51184854      11.72146749       2.48820963       0.00104823      -0.00017708       0.00006077
Au       7.82432795      -0.03446105       0.00778533       0.16247905       0.00022619       0.00274859      -0.00146350
Au       7.75980270       1.88670629       1.99640210      -0.43215044      -0.00013536      -0.00073892       0.00038771
Cu       9.77075482       0.05090893       1.94494008       2.32437432      -0.00024921       0.00188293       0.00142034
Cu       9.78753661       1.85990274       0.06335967       2.57150212      -0.00051165       0.00116092      -0.00066083
Cu       7.74750674       0.03471204       3.92516505       2.22893552       0.00184011       0.00123377       0.00034918
Cu       7.74660352       1.87904663       5.78163093       2.50054227      -0.00012409      -0.00056013      -0.00066195
Al       9.78880693      -0.04049901       5.82135616      -2.55753126      -0.00028089       0.00071237       0.00108222
Au       9.76261471       1.87751200       3.85398432      -0.65470757      -0.00027248      -0.00021028       0.00022006
Al       7.82669366      -0.05188786       7.84540646      -2.29119273       0.00098775       0.00074525       0.00090587
Cu       7.83923538       1.94537219       9.79387532       3.45116756       0.00039602       0.00178745       0.00045711
Al       9.80611885      -0.04127062       9.82405102      -1.75154163      -0.00053971      -0.00118315      -0.00058511
Au       9.77038771       1.93485250       7.79573763       0.77890039      -0.00006631      -0.00037651       0.00089698
Au       7.80540761       0.04324247      11.72725467       0.06402741       0.00104810       0.00107619       0.00092435
Au       7.74785117       1.99575783      13.73524732       0.02515134      -0.00033458       0.00009514      -0.00152245
Au       9.85241729       0.04630297      13.76508246       0.09937227       0.00088075       0.00105208      -0.00099653
Au       9.84402471       2.03507845      11.77058982       0.73516704       0.00011658       0.00089061      -0.00193677
Al       7.71462606       3.92389991       0.07645552      -2.36031305      -0.00086123      -0.00046240       0.00042011
Al       7.72541671       5.92532774       1.99476009      -2.52188996      -0.00156944      -0.00238118      -0.00062704
Al       9.75191472       3.90379083       1.91782400      -2.25257490      -0.00047524       0.00097732      -0.00081070
Au       9.74605410       6.06994625       0.07541310       0.63725817      -0.00037811       0.00028670       0.00133149
Au       7.72065515       3.84482990       3.93094948      -0.00735992      -0.00002967       0.00002175       0.00026689
Au       7.83446939       5.97484578       5.85266619       0.31863330       0.00053590      -0.00040723       0.00095169
Au       9.79661371       3.91037674       5.80105773      -0.28789003      -0.00049806       0.00146835       0.00260150
Au       9.78166179       5.96230245       3.89851178      -0.49433377      -0.00051500      -0.00022081       0.00004602
Au       7.80777223       3.84511825       7.77096390       0.73255952      -0.00004211       0.00012556       0.00146715
Al       7.80777081       5.89629680       9.78082362      -1.30053920      -0.00122683      -0.00052718       0.00166652
Al       9.81596995       3.93093569       9.75755750      -2.25205281       0.00032840       0.00128694      -0.00095621
Au       9.87424896       5.95156787       7.73992956       0.63260641      -0.00053873      -0.00059759      -0.00072502
Al       7.77292872       3.91369943      11.74956176      -2.35061600       0.00007482       0.00008542      -0.00115786
Au       7.76402525       5.93705201      13.73605273       0.19236289      -0.00093884      -0.00112168       0.00010952
Au       9.78648111       3.91930773      13.84906798       0.53108228      -0.00016518       0.00025483      -0.00002412
Au       9.82541282       5.83612096      11.78026830       1.36539686      -0.00122212       0.00022517      -0.00091249
Cu       7.71130178       7.87144118      -0.01693669       2.97005588      -0.00221416      -0.00105894      -0.00121407
Al       7.83170392       9.81533125       1.99987111      -3.23202840       0.00037125       0.00042759      -0.00061192
Cu       9.78148304       7.87892944       1.99768998       2.95028980       0.00027845      -0.00162491      -0.00001184
Au       9.72674017       9.75202867       0.04984314      -0.83412583       0.00022132      -0.00167512      -0.00181203
Cu       7.86887678       7.85962006       3.95840722       3.09567206      -0.00072009       0.00142172       0.00103786
Au       7.84397203       9.76628248       5.84828205       0.38828879      -0.00265090       0.00072152      -0.00105652
Cu       9.83699467       7.84308456       5.79896015       3.00470918       0.00099529      -0.00059008       0.00088533
Au       9.79012752       9.77295035       3.91506327      -0.88142947      -0.00190776      -0.00281207       0.00046665
Al       7.81388605       7.92716508       7.92093740      -1.88198208       0.00051587       0.00145652       0.00124226
Cu       7.72610378       9.92409352       9.91407141       3.04193112       0.00005156       0.00034703       0.00079188
Al       9.86270584       7.88575422       9.80982522      -1.77456972       0.00036915      -0.00146030       0.00019341
Al       9.84638822       9.75215425       7.84483501      -2.20858676       0.00160637      -0.00200617       0.00165694
Au       7.74268724       7.94084289      11.71463727       0.14399309      -0.00046612       0.00041476      -0.00025319
Au       7.73999646       9.83296203      13.69744266      -0.54970911      -0.00097788       0.00010439      -0.00090675
Al       9.78621468       7.88196451      13.69169085      -2.63598665      -0.00033467      -0.00040723      -0.00088401
Au       9.81870066       9.90258833      11.73460358       0.53789368       0.00026820      -0.00010302      -0.00143760
Au       7.86235335      11.85787260      -0.04673157      -0.82164773       0.00092917      -0.00023251      -0.00047696
Al       7.86611822      13.71833563       1.96013393      -2.87445993       0.00069310      -0.00103075      -0.00008009
Cu       9.82649481      11.77530683       1.99355012       2.66942274      -0.00023945      -0.00096287       0.00062557
Cu       9.76060818      13.68538233      -0.05907043       2.59869728      -0.00009270      -0.00074194       0.00142935
Cu       7.86894460      11.80530596       3.94854248       3.04852839       0.00085992       0.00117715       0.00105334
Cu       7.86537995      13.66613437       5.88605032       3.30859781       0.00167467       0.00053292       0.00005779
Al       9.80551864      11.73333384       5.91549052      -2.72447113       0.00029876       0.00002825       0.00110793
Au       9.81897232      13.65525092       3.91227079      -0.02897925       0.00202009      -0.00074135       0.00018675
Au       7.77541821      11.76662505       7.94703923       0.49078474      -0.00046490      -0.00140937       0.00175537
Al       7.75924302      13.80148761       9.85409720      -2.31675859      -0.00115914      -0.00113819       0.00100277
Au       9.86184953      11.79377027       9.76966443       0.50659472       0.00237823      -0.00114316       0.00088078
Au       9.83595794      13.77831580       7.82799635       0.48055614      -0.00001452      -0.00015946       0.00053356
Al       7.78245417      11.85524059      11.78297970      -3.06970369      -0.00018142      -0.00014689       0.00008317
Cu       7.83477208      13.76981677      13.75906423       2.51357270       0.00164325      -0.00046417       0.00087879
Cu       9.75984346      11.73999756      13.79168724       3.05868369      -0.00001165      -0.00130976      -0.00008680
Al       9.77688379      13.73049004      11.82111602      -2.03924393       0.00027117      -0.00218321       0.00010693
Au       7.86315520      15.63805019       0.01832975      -0.19459367      -0.00020564       0.00027283      -0.00045065
Au       7.80721937      17.68326408       2.08851380      -0.54444068       0.00142017       0.00147967      -0.00088318
Al       9.84346095      15.67702428       2.00668544      -2.22856601       0.00072950       0.00105399      -0.00023530
Al       9.78272393      17.63973123       0.02785717      -2.51483404       0.00010819       0.00209190      -0.00020695
Al       7.83669249      15.68576407       3.92118673      -2.33626435       0.00014954       0.00021224       0.00024185
Au       7.74948028      17.72684344       5.72766174       0.09213461       0.00109129       0.00120822       0.00081496
Al       9.82029089      15.72845330       5.78420819      -2.16012647      -0.00066133      -0.00085061       0.00104029
Cu       9.79743228      17.77440078       3.81386205       3.10710941       0.00150947      -0.00015885       0.00042049
Au       7.78406366      15.66952012       7.77990147       1.07248785      -0.00049261      -0.00116528       0.00088685
Au       7.74122545      17.47340190       9.92971691       0.24690201      -0.00000529       0.00035632      -0.00124520
Al       9.84224645      15.61864506       9.85415041      -1.95355001       0.00101192       0.00090010       0.00013249
Al       9.80059130      17.56309701       7.83284581      -1.54492899       0.00021172       0.00024781       0.00001717
Cu       7.73311437      15.61667809      11.83640626       2.94133594       0.00145557       0.00068079       0.00052251
Au       7.80078256      17.55074049      13.62915183      -0.22724450       0.00046723       0.00203171      -0.00028977
Cu       9.67776717      15.61260212      13.75309796       3.05683612       0.00092809       0.00046357      -0.00040861
Al       9.86052729      17.54789377      11.82416374      -2.05669800       0.00088963       0.00129605       0.00003000
Cu      11.72113304       0.12722371       0.04044231       2.53136287       0.00049052       0.00135636       0.00206569
Cu      11.77568951       1.90743080       1.91705099       2.33266707       0.00016742       0.00187851       0.00076474