399
Lattice="19.59262691714357 -0.0029401591670048664 0.00043227724696582155 -0.0029405439160256983 19.594541571232078 0.002722427805357169 0.0003459403246241731 0.002177382872289726 15.670877927394494" Properties=species:S:1:pos:R:3:energies:R:1:forces:R:3 energy=12.01311897406719 free_energy=12.01311897406719 stress="0.00016563466451625607 0.00010182295094623705 -0.00013813035630040344 0.00010182295094623705 -0.0006757769051491346 -0.00018329352907213211 -0.00013813035630040344 -0.00018329352907213211 0.00047643927677012255" pbc="T T T"
Au      -0.01700133       0.04079912       0.06379924      -1.22756403      -0.00112192      -0.00118229       0.00076446
Cu      -0.10509240       1.90434047       1.90027614       2.70322325      -0.00162740      -0.00062722      -0.00030171
Cu       2.03096157      -0.04460491       1.95325545       3.21549879       0.00133076       0.00135742       0.00032629
Al       1.94878983       1.93957821       0.12336223      -3.31149810      -0.00019006       0.00042565       0.00137942
Al      -0.08380200      -0.01261749       3.85599704      -2.47375753      -0.00187002      -0.00159292      -0.00069945
Al      -0.10036428       1.98551106       5.79020167      -1.85719327       0.00208488      -0.00206665      -0.00159364
Al       1.89569406       0.00000963       5.82596833      -2.18145132      -0.00037515      -0.00036807      -0.00043248
Al       1.89626991       1.89141044       3.78476927      -2.80226133      -0.00009833      -0.00063416       0.00025549
Al      -0.08459108      -0.01481550       7.75111375      -2.47284144       0.00017573      -0.00115205      -0.00158199
Au       0.00093262       1.93157301       9.76144548      -0.02695682      -0.00077787      -0.00065176      -0.00079688
Cu       1.87309843      -0.10699028       9.80504356       2.18467843      -0.00084655       0.00057040       0.00071595
Au       1.94676022       1.90190238       7.87189661      -0.59484765      -0.00269930       0.00027736       0.00028433
Cu       0.03423703      -0.11477558      11.74644175       2.01095237      -0.00159518       0.00019495      -0.00188570
Cu       0.00451152       1.89113450      13.78479517       2.56866141      -0.00187837      -0.00086951      -0.00050148
Au       1.87850805      -0.03565675      13.67535791      -0.28007988      -0.00099577       0.00303885       0.00019275
Au       1.89609569       1.87330296      11.69337753      -0.88092269      -0.00027247      -0.00016355       0.00112025
Cu       0.00026175       3.84531146       0.11182754       2.17146607      -0.00000807      -0.00010100      -0.00067194
Cu      -0.10577543       5.78564037       1.86802708       2.73559388       0.00312317       0.00139562      -0.00108834
Cu       1.87349203       3.84571223       1.93891562       2.88355863       0.00062486      -0.00103219       0.00207242
Au       1.92664786       5.77436550       0.08302917      -0.33957572       0.00009711       0.00076002       0.00026883
Al      -0.06523981       3.86408477       3.79989482      -2.46173208       0.00227489       0.00021632      -0.00056324
Au      -0.00548186       5.75178385       5.91315153       0.18142855      -0.00143447       0.00012769       0.00066090
Au       2.02020101       3.77512826       5.80646537       0.33215571      -0.00093171       0.00087823      -0.00039509
Al       1.90613987       5.76658403       3.82675892      -2.29372499      -0.00003136      -0.00014903       0.00099574
Cu       0.11765672       3.87055984       7.82744705       3.34039120      -0.00187169       0.00079721      -0.00163610
Au       0.05739488       5.82995839       9.71326292       0.57910257      -0.00299119      -0.00039212       0.00035615
Cu       1.96091641       3.83349295       9.80013831       2.86102663      -0.00054240      -0.00012100      -0.00081236
Al       1.97925224       5.85524540       7.82010026      -3.22678161      -0.00140139      -0.00027422       0.00027594
Au       0.00998033       3.90743567      11.77766883       0.30427731      -0.00198123       0.00123113       0.00003827
Au      -0.03823358       5.84490346      13.85036293       0.39935330      -0.00083283       0.00018744      -0.00087823
Au       1.91245389       3.83582926      13.79052379       0.19895537       0.00040687       0.00136532      -0.00124623
Al       1.98118938       5.86346688      11.82047015      -2.76175221       0.00000047      -0.00064754       0.00054944
Al       0.00640153       7.81993606       0.07173806      -2.95027489      -0.00119892       0.00138297       0.00049383
Au       0.04990552       9.79064530       2.05730463      -0.06747485       0.00027487      -0.00024194       0.00063532
Al       1.94101454       7.82749487       1.94923860      -2.39273174      -0.00070042       0.00066172       0.00115875
Cu       1.97975738       9.84308106       0.01970413       3.02135388       0.00085473      -0.00041881      -0.00037940
Al       0.06007677       7.76438212       3.95805551      -2.59681675      -0.00061407       0.00135196      -0.00066127
Al       0.06037869       9.75452406       5.93234993      -2.71731201      -0.00249148      -0.00089834      -0.00080238
Cu       1.95763164       7.80296699       5.93133492       3.14371741      -0.00086927      -0.00025910      -0.00102315
Cu       1.92915818       9.90182513       3.93788687       3.07791043      -0.00014019      -0.00080668      -0.00034363
Cu       0.00445086       7.72741987       7.76819051       3.56982303       0.00063712      -0.00041052       0.00052114
Al       0.02048818       9.79591739       9.71670868      -2.23351960      -0.00098595       0.00015365      -0.00058927
Al       2.01822122       7.89966623       9.78856054      -2.21266486      -0.00093471      -0.00225156       0.00016707
Al       1.99829103       9.78712413       7.89700679      -2.12669788       0.00122019      -0.00039071       0.00021787
Al       0.09221584       7.85006796      11.74693736      -2.15601346       0.00015824      -0.00029092      -0.00082148
Au       0.17693194       9.79256036      13.69221991       0.01029863       0.00024309      -0.00036213       0.00014142
Cu       1.96245250       7.80617680      13.79196817       3.07537119       0.00058826       0.00064736      -0.00213572
Cu       2.02416068       9.92607355      11.72774071       2.94706273       0.00049993      -0.00056478      -0.00132405
Al       0.10693710      11.85864062      -0.02904623      -3.03252389       0.00220942      -0.00036712      -0.00081339
Cu       0.08867919      13.78803920       2.02620287       2.86397285       0.00125760       0.00047626      -0.00181888
Au       1.89143550      11.80760648       1.99708747      -1.07834980       0.00010858      -0.00074283       0.00151203
Cu       1.99762440      13.83991051      -0.06314340       2.21277093       0.00168599      -0.00093002      -0.00070190
Cu       0.02136903      11.80727354       3.98288946       2.75736887       0.00043281       0.00091866       0.00130376
Au       0.02594344      13.81461954       6.07885650      -1.60548525       0.00239578       0.00030640       0.00115001
Au       1.86887272      11.80470609       5.94844935       0.07742601       0.00147608       0.00036059       0.00036550
Au       1.86368748      13.81203489       3.96633536      -0.40922373       0.00022026       0.00009276       0.00031202
Cu       0.03882914      11.89393305       7.89320953       3.25309325       0.00185447       0.00010871       0.00082022
Au      -0.04225826      13.78867728       9.70138302      -2.02900021       0.00200819       0.00046289       0.00173816
Au       2.02766933      11.86689733       9.81958359      -1.43136732      -0.00017716      -0.00125825       0.00073742
Cu       1.92763506      13.82214911       7.91956340       2.65447911       0.00102885      -0.00018912       0.00064939
Au       0.01816812      11.79851859      11.66533382      -0.44969663       0.00258258      -0.00121342      -0.00400194
Au       0.04538250      13.82577896      13.58971368      -0.68448264       0.00152765      -0.00038252      -0.00058249
Au       2.02655449      11.89561889      13.60217400      -1.27557478       0.00270484      -0.00112533      -0.00061885
Cu       2.04397043      13.78771280      11.72080123       1.98141832       0.00139288      -0.00009112      -0.00089918
Au       0.07321849      15.60285130      -0.00561811      -0.53087793       0.00099583       0.00001469      -0.00023507
Al      -0.00718344      17.67991955       1.99125159      -2.50449007      -0.00128900      -0.00050723       0.00055378
Cu       1.90729456      15.66188598       1.92355379       2.71228474       0.00232426       0.00090252      -0.00081325
Au       1.96870448      17.56983199       0.05702810      -1.24022375       0.00061249       0.00015949      -0.00003358
Au       0.00904746      15.78703547       3.97207081      -0.32956652       0.00014670       0.00017992      -0.00019243
Cu      -0.09968934      17.60243731       5.87745164       2.87168161       0.00056349      -0.00191292      -0.00046785
Cu       1.85239720      15.77168241       5.99998193       2.62288416      -0.00002825       0.00037068      -0.00001678
Al       1.96300272      17.65797114       3.93414826      -2.63618484       0.00094833       0.00007477       0.00095508
Cu       0.02071324      15.72717144       7.91508585       2.24430288       0.00070817       0.00064650       0.00075954
Cu       0.00350366      17.60371409       9.83112088       2.17028581      -0.00054497      -0.00048178       0.00001103
Au       1.93978022      15.71683950       9.84257305      -2.45833283      -0.00031183      -0.00009660       0.00363672
Au       1.84471556      17.64924254       7.84174117      -1.57847982       0.00069873       0.00187734       0.00100793
Al      -0.05990137      15.70242876      11.67408251      -4.11497924       0.00149366       0.00106827       0.00231483
Au       0.00321504      17.57503437      13.64544898      -1.36868384       0.00005332      -0.00002301       0.00058509
Cu       1.99148471      15.65518210      13.65648273       1.87925844       0.00054676       0.00052835       0.00001341
Cu       1.91223307      17.62752749      11.69362735       2.01419358      -0.00114600       0.00018663       0.00011583
Au       3.86536896      -0.04477797       0.08000553       0.11178491       0.00033185       0.00206924      -0.00127317
Cu       3.90595200       1.93545759       2.06670065       2.58839984      -0.00097767       0.00122018      -0.00091479
Al       5.80369652      -0.03315107       2.00353502      -3.47896957      -0.00080972      -0.00034925       0.00064548
Al       5.79490518       1.94852675       0.03561110      -2.30170104       0.00056777       0.00125521       0.00076901
Au       3.92666754      -0.02990943       3.91780566      -1.43544620      -0.00060372       0.00105019       0.00006057
Cu       3.94242577       1.85907805       5.84050451       2.67430056      -0.00073413       0.00077235       0.00002102
Cu       5.81006313      -0.01268874       5.78995291       1.88150054      -0.00017803       0.00000894      -0.00094388
Cu       5.81175629       1.88317121       3.95646615       1.75766392      -0.00147011      -0.00074218       0.00045899
Au       3.85757869      -0.03592623       7.86781467      -0.98850908       0.00020380       0.00087390       0.00102641
Cu       3.82436914       1.92971595       9.79713707       2.86513066      -0.00086043       0.00189512      -0.00004649
Al       5.83499911       0.00920630       9.84560271      -2.96200576       0.00022241       0.00289060      -0.00034063
Au       5.87416455       1.84605727       7.75800758      -0.28512598       0.00102313       0.00055781      -0.00059660
Al       3.87302969      -0.05691928      11.65467500      -3.29993778      -0.00028671       0.00219366      -0.00037473
Al       3.91799587       1.90979801      13.70885995      -2.31137021      -0.00064444       0.00104196       0.00028256
Au       5.81801607      -0.09270616      13.64062478       0.26659662      -0.00012434       0.00269275       0.00068924
Cu       5.86861365       1.96083020      11.78139536       3.13008166       0.00105373       0.00235676       0.00127457
Al       3.93728281       3.85417358       0.07751693      -2.53483877      -0.00081657       0.00077936      -0.00039635
Al       3.91218968       5.77437400       2.01959948      -2.26817652      -0.00035582       0.00040341      -0.00076586
Cu       5.78605625       3.74144665       2.12172804       2.95581179      -0.00203918       0.00029438      -0.00045793
Au       5.78947017       5.90040672      -0.05234705      -0.21657895       0.00059103      -0.00211406       0.00204575
Cu       3.88927684       3.72157322       3.87579038       2.40531492       0.00054555       0.00127748      -0.00036343
Au       3.83046153       5.89537402       5.82727973       0.52422634      -0.00128090      -0.00082325      -0.00103077
Al       5.78050627       3.86668969       5.82438615      -3.01417353       0.00031912       0.00038522      -0.00023657
Al       5.81123002       5.87695983       3.90515186      -2.36401495      -0.00067932       0.00040925       0.00045089
Au       3.89216130       3.80427534       7.86799814       0.11889135       0.00091445      -0.00018448      -0.00101614
Au       3.87161580       5.85817219       9.79727152       0.99308301       0.00080256      -0.00082021      -0.00045004
Al       5.87476642       3.81044784       9.80117349      -2.36137953      -0.00032274       0.00068471       0.00148599
Al       5.83988577       5.87620769       7.84405876      -2.05052512      -0.00031730       0.00005454      -0.00086359
Au       3.91041984       3.83053740      11.76018387      -0.30355772      -0.00146516       0.00030140       0.00124207
Cu       3.86880887       5.87854083      13.77087068       2.76138505       0.00068743      -0.00098369       0.00138233
Cu       5.79782641       3.95271330      13.67977313       3.27120166      -0.00042730      -0.00038784       0.00046325
Al       5.79670404       5.89975748      11.79034116      -2.60854292       0.00048936      -0.00203363      -0.00030947
Au       3.83321744       7.86958505      -0.05986100      -0.78423786       0.00076370      -0.00150821      -0.00106086
Cu       3.81338078       9.86149104       1.91709206       2.80000295       0.00015237      -0.00050073       0.00071676
Au       5.80115240       7.90084673       1.96406185       0.53965789      -0.00051076      -0.00062183       0.00138879
Au       5.81767315       9.82375246      -0.01702452      -0.32415783      -0.00041353      -0.00136645       0.00100847
Au       3.75597116       7.96591018       3.92487664       0.48511947      -0.00178079      -0.00149815      -0.00000506
Al       3.84106183       9.83532041       5.94005555      -2.31456954       0.00017493       0.00001945       0.00051687
Au       5.81437558       7.87045517       5.88217645       0.92014485      -0.00078837       0.00004925      -0.00217036
Al       5.86772609       9.82677977       3.91372258      -2.71971228      -0.00035570      -0.00002623      -0.00045148
Cu       3.90397930       7.81887057       7.81763716       3.45195480       0.00112744      -0.00086276       0.00029482
Cu       3.90684321       9.91266624       9.98416527       2.42492592       0.00110689      -0.00194664      -0.00017262
Au       5.72103589       7.98281129       9.82524339      -0.03472381       0.00168516      -0.00104578       0.00043918
Al       5.77573845       9.87387332       7.91182132      -2.53801419      -0.00023888      -0.00112509       0.00086039
Au       3.86218841       7.91414510      11.88414281      -0.66367370       0.00106730      -0.00071956      -0.00146826
Al       3.86679254       9.87978196      13.67881592      -3.72030995       0.00052671      -0.00109641      -0.00067750
Cu       5.84642045       7.87477461      13.73621194       2.72096646       0.00076796      -0.00180772       0.00116123
Cu       5.79775413       9.87201025      11.74927559       2.19516657       0.00081830      -0.00275456       0.00065852
Au       3.80427172      11.84486563       0.01492421      -0.61115547      -0.00086111      -0.00027189      -0.00057206
Al       3.85320213      13.85542151       1.99016805      -3.26499738       0.00100748      -0.00086679      -0.00048091
Au       5.84193094      11.77381944       1.96239903       0.49489087      -0.00013821       0.00095706      -0.00001978
Au       5.76722304      13.84299585       0.00526658      -0.28713948       0.00041623      -0.00053140      -0.00163498
Au       3.84835869      11.75168866       3.92586447       0.35346484       0.00060011      -0.00045029       0.00013101
Al       3.83341091      13.78145532       5.91406629      -2.21839527       0.00175544       0.00092978       0.00054441
Au       5.93630024      11.83233984       5.86487406       0.75285860      -0.00032452       0.00057667       0.00055900
Au       5.91318702      13.75202034       3.90522271       0.72035207       0.00083244       0.00011829      -0.00034325
Al       3.90986786      11.84888251       7.91449244      -2.24354636       0.00088432      -0.00104022       0.00138115
Cu       3.83871389      13.82869758       9.85465975       2.20335823       0.00055422      -0.00106362       0.00038181
Cu       5.75506646      11.75217142       9.94442878       2.36659833      -0.00028031      -0.00121463      -0.00009793
Al       5.80485840      13.75859784       7.95347659      -2.41362934      -0.00001468      -0.00089746      -0.00063607
Cu       3.89685191      11.87919346      11.69376008       1.83568590       0.00032119      -0.00130073      -0.00009740
Cu       3.80247757      13.82647611      13.66871342       1.90838786       0.00097580      -0.00032940       0.00051138
Au       5.76577344      11.91644117      13.65146510      -0.57431431       0.00027292      -0.00218001      -0.00002053
Au       5.70470718      13.82535264      11.67939098      -1.71087346      -0.00055361      -0.00090606       0.00021254
Cu       3.79470751      15.68695001       0.00153449       2.12576732       0.00065239      -0.00031170      -0.00018358
Cu       3.86629844      17.55394085       1.94564175       2.42588070      -0.00028265       0.00046169      -0.00074943
Cu       5.82766708      15.78420551       1.98870844       2.88387516       0.00043828      -0.00129568      -0.00018327
Au       5.77664934      17.52318529       0.04659271      -0.55296500      -0.00083213       0.00107566       0.00036712
Al       3.86406181      15.78082984       3.96283884      -2.68736940      -0.00019960      -0.00120481      -0.00013227
Cu       3.91632361      17.69645039       5.93336284       2.90089709       0.00089734       0.00016114       0.00005043
Al       5.82951070      15.69602293       5.84804618      -2.31911811      -0.00025580       0.00010739      -0.00009289
Cu       5.78971435      17.69360557       3.91955589       2.60570553       0.00025093       0.00013996      -0.00021457
Au       3.82817390      15.72393502       7.86789952      -1.00794114       0.00327292      -0.00022633      -0.00153763
Cu       3.82432804      17.58491912       9.81287029       2.19329279       0.00018611       0.00176833       0.00035387
Cu       5.69441601      15.76683911       9.86078657       2.22898355      -0.00001320       0.00038093       0.00007401
Au       5.80690741      17.64388143       7.85082708      -0.26983910      -0.00076792       0.00071541      -0.00102913
Cu       3.80153401      15.71719620      11.69308319       1.55260492      -0.00022256       0.00052718      -0.00041607
Au       3.81215454      17.53289712      13.62085345      -1.13694076       0.00042433       0.00189690      -0.00027782
Al       5.77579121      15.64331306      13.66609117      -3.81597327      -0.00094111       0.00125717       0.00002753
Cu       5.78753870      17.51555914      11.71906975       2.48957896      -0.00099530       0.00302524      -0.00084827
Au       7.82279980      -0.03417404       0.00396924       0.16661089       0.00054244      -0.00031310      -0.00080106
Au       7.76531767       1.88026836       1.99483568      -0.44921200      -0.00002815       0.00013809       0.00057165
Cu       9.76814820       0.04195427       1.94342714       2.33676982       0.00162688       0.00161081      -0.00042121
Cu       9.78874489       1.86087551       0.06929750       2.57653423       0.00244576      -0.00036163      -0.00152358
Cu       7.75256097       0.03045584       3.92358587       2.22698135       0.00229689       0.00094054      -0.00040685
Cu       7.75920508       1.87382093       5.77773838       2.50991555      -0.00053089       0.00003322      -0.00071833
Al       9.79356207      -0.04305074       5.81868179      -2.56348650       0.00175789      -0.00090501      -0.00214423
Au       9.77442453       1.87153435       3.84896322      -0.65868785       0.00141933      -0.00077350       0.00078010
Al       7.83613889      -0.04939223       7.84682253      -2.28874373      -0.00009457      -0.00038305       0.00015978
Cu       7.84956955       1.95083804       9.79085372       3.45235608       0.00128709      -0.00059946      -0.00093373
Al       9.80980674      -0.03646063       9.82303485      -1.75156661       0.00062278      -0.00148944      -0.00045206
Au       9.78567463       1.93811324       7.78576731       0.78722647      -0.00031324      -0.00019075      -0.00044388
Au       7.80831701       0.05111992      11.72463838       0.06662977      -0.00034897       0.00115263       0.00121655
Au       7.75230265       1.99964022      13.73372875       0.02427280      -0.00022061      -0.00036604       0.00141473
Au       9.85062482       0.04975028      13.76353636       0.09954260       0.00077786       0.00100961       0.00047720
Au       9.85244875       2.04292457      11.77030384       0.72702399       0.00098531      -0.00165102       0.00069158
Al       7.72110786       3.91994729       0.07775342      -2.36783519      -0.00034627      -0.00101407       0.00316456
Al       7.74979283       5.92627811       1.98374570      -2.51537715       0.00002262       0.00000638       0.00030205
Al       9.75947914       3.90214869       1.91767469      -2.24963737       0.00264557      -0.00051637      -0.00213663
Au       9.75886222       6.07083091       0.07654374       0.63989633       0.00071362       0.00140745      -0.00068108
Au       7.73955668       3.83902898       3.92306472       0.01499272       0.00038472       0.00079900       0.00032415
Au       7.84635066       5.96878002       5.85324092       0.32887021      -0.00053165      -0.00019380       0.00029298
Au       9.81097082       3.90588703       5.79518475      -0.27831469       0.00225031       0.00001704      -0.00073717
Au       9.79244381       5.96319802       3.89976579      -0.48374101      -0.00016504      -0.00015609       0.00207787
Au       7.81645477       3.84282041       7.76894440       0.73059342       0.00177698       0.00002804      -0.00001353
Al       7.81247570       5.88963606       9.77610827      -1.29420624       0.00114029      -0.00004607       0.00022730
Al       9.83430349       3.93085347       9.74341920      -2.24420452      -0.00066085      -0.00084576       0.00182262
Au       9.89449952       5.94023603       7.72958262       0.63227826      -0.00116501       0.00063929       0.00071234
Al       7.78053717       3.91426040      11.74750416      -2.34625380      -0.00010885      -0.00034904       0.00040926
Au       7.77005657       5.93178481      13.73730599       0.18964402      -0.00156203       0.00041785      -0.00021056
Au       9.79734932       3.91991459      13.86097307       0.52214665      -0.00223139       0.00090213      -0.00246293
Au       9.83475645       5.82634862      11.77839729       1.35483894      -0.00014592       0.00114280      -0.00041559
Cu       7.71998110       7.87222908      -0.02346942       2.97547744      -0.00002213      -0.00080799       0.00084146
Al       7.83942904       9.82729694       1.99085107      -3.22873765      -0.00017798      -0.00134050       0.00101147
Cu       9.78483161       7.88513577       1.99648886       2.94379974       0.00126541      -0.00024486       0.00043062
Au       9.72594293       9.75370226       0.04016118      -0.83166491      -0.00095259       0.00002093      -0.00017632
Cu       7.88394149       7.86495694       3.95636020       3.09249806       0.00135764       0.00005906       0.00016654
Au       7.85039328       9.77534404       5.85490607       0.40111342      -0.00067005       0.00007138       0.00050137
Cu       9.83545055       7.84831501       5.80274545       3.00471043       0.00132102       0.00021963      -0.00239450
Au       9.78289962       9.78861392       3.91362889      -0.87531127       0.00196272      -0.00120029       0.00100354
Al       7.81821044       7.91920552       7.92130792      -1.88031762       0.00017819       0.00057976       0.00148283
Cu       7.72492309       9.91971296       9.91553432       3.03640052      -0.00036115      -0.00184615       0.00010658
Al       9.86728664       7.87317541       9.80804506      -1.76362596      -0.00038637       0.00003853      -0.00069545
Al       9.84183991       9.75574217       7.85631900      -2.21580904       0.00149803       0.00023970      -0.00171476
Au       7.74310609       7.93301817      11.71195519       0.14815565      -0.00005490      -0.00087580       0.00070618
Au       7.74164928       9.83148110      13.69018985      -0.55769772       0.00011449      -0.00126113       0.00017543
Al       9.79007952       7.87628794      13.68610802      -2.63565399       0.00003989      -0.00122304      -0.00104453
Au       9.81882638       9.89590394      11.72850204       0.53063656       0.00058437      -0.00086851      -0.00055273
Au       7.86161096      11.86203843      -0.05369316      -0.82923430      -0.00034671      -0.00041873       0.00008199
Al       7.86070974      13.72267892       1.95788404      -2.87808460      -0.00007469       0.00005908      -0.00091070
Cu       9.82353125      11.78628022       1.98610327       2.67522646      -0.00174619       0.00005284       0.00148679
Cu       9.75641611      13.68796352      -0.06291198       2.61006616      -0.00144249      -0.00000003      -0.00169719
Cu       7.86816080      11.81528708       3.94872012       3.06446147      -0.00034108      -0.00016117      -0.00030863
Cu       7.86002563      13.67216168       5.88886514       3.31597854       0.00006542       0.00053335       0.00045965
Al       9.80114512      11.74501065       5.92069974      -2.73035496      -0.00055809      -0.00032001      -0.00035587
Au       9.81508422      13.66004209       3.91057249      -0.03401834      -0.00155009       0.00114622       0.00083384
Au       7.77270648      11.77142726       7.95323204       0.49440076      -0.00022932      -0.00139596       0.00062155
Al       7.75487607      13.80443932       9.85605484      -2.32105742      -0.00125077      -0.00093080      -0.00018489
Au       9.85933737      11.79824385       9.77507068       0.51477484      -0.00134355      -0.00044065      -0.00128271
Au       9.83030856      13.78402716       7.83230512       0.48364689      -0.00169561       0.00118817       0.00072159
Al       7.78233600      11.85578045      11.78108389      -3.07473816      -0.00043669      -0.00237298       0.00007335
Cu       7.83229356      13.77336308      13.75458317       2.52140878      -0.00233945      -0.00064448      -0.00076674
Cu       9.75763220      11.74127771      13.78497643       3.06902150       0.00004757      -0.00192430       0.00003001
Al       9.77286623      13.73359096      11.82153467      -2.04912841      -0.00209904      -0.00110088      -0.00068718
Au       7.85894963      15.63963812       0.01364351      -0.19256621      -0.00161578       0.00025349      -0.00096250
Au       7.80401202      17.68138992       2.08494569      -0.54717563       0.00020068       0.00142115      -0.00036927
Al       9.83706636      15.67447100       2.00188965      -2.23596712      -0.00163427      -0.00066412      -0.00145786
Al       9.77656577      17.63754039       0.02285014      -2.52619348       0.00126979      -0.00044184       0.00181239
Al       7.83056422      15.68792311       3.92173976      -2.34563748      -0.00020790      -0.00004184      -0.00075424
Au       7.74822917      17.72835114       5.73129138       0.08994424      -0.00020862      -0.00018850      -0.00048422
Al       9.80995645      15.72414842       5.78745317      -2.16277986       0.00000112       0.00181269      -0.00066242
Cu       9.79124012      17.76269980       3.81456981       3.12099709      -0.00205758      -0.00043069       0.00019974
Au       7.77304623      15.67286557       7.78419278       1.06786098      -0.00024064       0.00153465      -0.00021987
Au       7.73728349      17.47970318       9.92916395       0.24726117      -0.00017851       0.00263829      -0.00007414
Al       9.83410661      15.62061613       9.85619444      -1.95725618      -0.00101820       0.00119560       0.00063780
Al       9.79512793      17.55897766       7.83411624      -1.54880262       0.00177168       0.00104435      -0.00023670
Cu       7.73070383      15.62067634      11.83448500       2.94942248      -0.00161360       0.00117064      -0.00112543
Au       7.79801776      17.55463831      13.62497168      -0.22754912      -0.00150560       0.00109945      -0.00056368
Cu       9.67493534      15.61555816      13.74982707       3.06821831      -0.00129731       0.00014463      -0.00078033
Al       9.85592698      17.55151606      11.82141656      -2.06064364       0.00076792       0.00038594       0.00033432
Cu      11.70587097       0.12141004       0.04480648       2.55585376       0.00123522      -0.00105611      -0.00064134