399
Lattice="19.59262691714357 -0.0029401591670048664 0.00043227724696582155 -0.0029405439160256983 19.594541571232078 0.002722427805357169 0.0003459403246241731 0.002177382872289726 15.670877927394494" Properties=species:S:1:pos:R:3:energies:R:1:forces:R:3 energy=12.064916194196929 free_energy=12.064916194196929 stress="0.0002472836650891292 4.2380234095553615e-05 -0.00016210356362788558 4.2380234095553615e-05 5.0354620274954656e-05 -2.594485803083452e-05 -0.00016210356362788558 -2.594485803083452e-05 0.0007431681069872335" pbc="T T T"
Au      -0.01542881       0.04259359       0.06379498      -1.22173996       0.00117256      -0.00033918      -0.00125787
Cu      -0.08301509       1.90101317       1.89489209       2.72526395       0.00066122      -0.00061344       0.00084221
Cu       2.03683980      -0.04815441       1.95356062       3.20810706      -0.00060194       0.00034650      -0.00070672
Al       1.96088374       1.93652661       0.11843989      -3.31542484      -0.00031621       0.00020950      -0.00014884
Al      -0.06971779      -0.02323499       3.85668279      -2.46562248       0.00029613      -0.00002350       0.00117844
Al      -0.07653924       1.97633311       5.79678777      -1.87791465      -0.00015857      -0.00090792       0.00083728
Al       1.90589618      -0.01106831       5.82775499      -2.18186343       0.00124917       0.00093399      -0.00128198
Al       1.90490834       1.89001963       3.78791554      -2.80409237       0.00081186       0.00043202       0.00040084
Al      -0.07557706      -0.02161921       7.75451421      -2.47692171       0.00003582       0.00012455      -0.00055386
Au       0.00556589       1.93066695       9.75966618      -0.02110821      -0.00073819       0.00014052       0.00110083
Cu       1.87521594      -0.11113059       9.80610579       2.18500333       0.00169989       0.00074396      -0.00139374
Au       1.95465602       1.90094764       7.87369490      -0.59092293       0.00163002      -0.00087896      -0.00021273
Cu       0.03303111      -0.11671600      11.74591663       2.00813301       0.00078278       0.00087497      -0.00185626
Cu       0.00681867       1.89199264      13.78607109       2.56020675      -0.00054431      -0.00016925      -0.00122220
Au       1.87902040      -0.03841730      13.67379604      -0.27986768      -0.00021965      -0.00089502      -0.00065489
Au       1.89878426       1.87172867      11.69269899      -0.87381039       0.00057884       0.00073868      -0.00239137
Cu       0.02765315       3.84551039       0.09343729       2.23069096       0.00015265      -0.00048661       0.00008649
Cu      -0.08483624       5.78947167       1.85709428       2.75573699      -0.00033129      -0.00047233      -0.00024010
Cu       1.88568973       3.84727277       1.93459414       2.86741030      -0.00055425       0.00019316       0.00067929
Au       1.94091168       5.78229817       0.07541265      -0.35377902      -0.00224376      -0.00050129       0.00035855
Al      -0.04919006       3.86717314       3.79975967      -2.51812370      -0.00124298      -0.00138035       0.00084504
Au       0.00973635       5.76259878       5.91525430       0.14505219      -0.00190892      -0.00079165      -0.00057526
Au       2.02883854       3.77867512       5.80903635       0.33073480       0.00033919       0.00085079       0.00090436
Al       1.91731317       5.76978234       3.82382594      -2.29467574      -0.00090028      -0.00017081       0.00027061
Cu       0.11946999       3.87253523       7.82300146       3.31688180       0.00005852      -0.00133878      -0.00075485
Au       0.06008509       5.83208946       9.71309558       0.58440970       0.00003609      -0.00113483       0.00039865
Cu       1.96432008       3.83533671       9.79976368       2.85552414       0.00080885      -0.00104167       0.00005889
Al       1.98593488       5.86019660       7.82456976      -3.21844482       0.00137865      -0.00080372      -0.00012593
Au       0.01445394       3.90821396      11.77771900       0.30200295       0.00023185      -0.00147951      -0.00148756
Au      -0.02786981       5.85054155      13.84487235       0.38901219      -0.00085172      -0.00031769      -0.00043607
Au       1.92152712       3.83760086      13.78570218       0.18504873       0.00020362      -0.00020717      -0.00033718
Al       1.98742342       5.86844220      11.81820284      -2.75990715      -0.00035166      -0.00138996       0.00039184
Al       0.01397803       7.82619189       0.06712887      -2.96152450      -0.00165989      -0.00142184       0.00044761
Au       0.04760322       9.78947193       2.05963850      -0.06178430      -0.00176872      -0.00126924       0.00137643
Al       1.94507931       7.83175311       1.94700928      -2.40166483      -0.00135190       0.00066180       0.00086212
Cu       1.97642040       9.84479052       0.01620673       3.02957555      -0.00123223      -0.00131686       0.00088150
Al       0.06181213       7.76241476       3.95474035      -2.58998224      -0.00145529      -0.00078120       0.00110555
Al       0.05796553       9.75040164       5.92936570      -2.71402105      -0.00176158       0.00001371       0.00075301
Cu       1.96442629       7.80789353       5.92890054       3.14563478      -0.00168845      -0.00078058      -0.00039986
Cu       1.93093215       9.90237738       3.93724458       3.07661238      -0.00211449      -0.00056464      -0.00057284
Cu       0.00518516       7.73049722       7.76714928       3.56938370      -0.00111112      -0.00086373       0.00008165
Al       0.01847130       9.79756589       9.71003208      -2.23607402      -0.00088223      -0.00010439       0.00072147
Al       2.02185588       7.90394909       9.78957655      -2.21066427      -0.00080806      -0.00006537      -0.00022439
Al       2.00117097       9.78935592       7.89494413      -2.12524125      -0.00110716       0.00038815      -0.00026094
Al       0.09349476       7.85322213      11.74325503      -2.15793907       0.00076528      -0.00073669       0.00060528
Au       0.17316502       9.79477047      13.68968215       0.01309751       0.00082753       0.00108878      -0.00144173
Cu       1.96802016       7.81549242      13.78769009       3.07441960      -0.00092114      -0.00069152      -0.00033240
Cu       2.02292438       9.92722169      11.72762187       2.94840900      -0.00017428       0.00062161      -0.00238162
Al       0.10358132      11.85823816      -0.02814762      -3.03287560       0.00004564      -0.00001656      -0.00058287
Cu       0.08349009      13.78834545       2.02494210       2.85925297      -0.00130440       0.00148004      -0.00017871
Au       1.88728134      11.80787356       1.99821155      -1.07429286      -0.00422308      -0.00218172       0.00030228
Cu       1.98896683      13.84450979      -0.06627106       2.21191027      -0.00225524       0.00109038      -0.00039688
Cu       0.01829484      11.80556955       3.98347086       2.75733375      -0.00249816      -0.00068060       0.00149843
Au       0.02312901      13.81492917       6.07839967      -1.60951678      -0.00067946       0.00077527      -0.00089199
Au       1.86818761      11.80608547       5.94487895       0.07131613      -0.00206099      -0.00054448       0.00001005
Au       1.85948699      13.81351980       3.96443716      -0.41167880      -0.00173550       0.00087544      -0.00031095
Cu       0.03926925      11.89313888       7.89092064       3.24561202      -0.00004149      -0.00026700      -0.00035395
Au      -0.04392811      13.78901175       9.69974904      -2.02584885      -0.00041582       0.00235044      -0.00231327
Au       2.02889855      11.86760693       9.82233375      -1.43020904       0.00110663       0.00008338      -0.00056984
Cu       1.92775911      13.82086543       7.91695668       2.64868670       0.00016784       0.00151879       0.00031906
Au       0.01252796      11.80009015      11.66050722      -0.44743655       0.00101035       0.00019549       0.00336945
Au       0.03748022      13.82855346      13.59047809      -0.68119733       0.00184579      -0.00148184      -0.00262069
Au       2.01842072      11.89886308      13.59533615      -1.27865554      -0.00828706      -0.00075676      -0.00279060
Cu       2.04125407      13.78945778      11.72046710       1.98781409      -0.00046957      -0.00116642       0.00099904
Au       0.06290513      15.60799009      -0.00506239      -0.52830642       0.00028568       0.00075214      -0.00045643
Al      -0.00717080      17.67945432       1.98911345      -2.49345251       0.00036237       0.00147990      -0.00072805
Cu       1.90449228      15.65976418       1.92007680       2.71540342       0.00002437      -0.00140445      -0.00006965
Au       1.96969014      17.56563527       0.05582969      -1.24177390      -0.00084676       0.00076549      -0.00130603
Au       0.00507753      15.78863572       3.97075019      -0.32101187      -0.00014081       0.00007787       0.00005419
Cu      -0.09530282      17.59849050       5.87922866       2.87126756      -0.00030797       0.00018895       0.00025616
Cu       1.85473216      15.76756450       5.99738784       2.61642789      -0.00013242      -0.00047832       0.00084873
Al       1.97338894      17.64573665       3.93126742      -2.64137330      -0.00141230       0.00081305      -0.00015466
Cu       0.01922963      15.72798439       7.91409286       2.23674989      -0.00026102       0.00181500      -0.00030679
Cu       0.00208836      17.60067208       9.83024668       2.16623057       0.00089737       0.00193779      -0.00161778
Au       1.94036370      15.71314610       9.84323415      -2.45859784       0.00217705       0.00245131      -0.00344489
Au       1.85067943      17.64289461       7.84333171      -1.57006509       0.00227660      -0.00222198      -0.00047906
Al      -0.06408453      15.70432605      11.67605127      -4.11321192      -0.00027585       0.00186482      -0.00023749
Au      -0.00318861      17.57813297      13.65028383      -1.36616042       0.00052638       0.00254752      -0.00124517
Cu       1.98739832      15.65521321      13.65696959       1.87474509      -0.00027294      -0.00117928      -0.00133905
Cu       1.91035707      17.62336397      11.69546042       2.01025781       0.00057934       0.00174416      -0.00049252
Au       3.86693833      -0.05035734       0.07822124       0.11601491       0.00042746      -0.00095123      -0.00107323
Cu       3.90747166       1.93426689       2.06658996       2.58653822       0.00032465       0.00045314       0.00073008
Al       5.80267009      -0.03403325       2.00338252      -3.47724569       0.00055213      -0.00086330      -0.00111121
Al       5.79244070       1.94442304       0.03508713      -2.29934576       0.00103684       0.00047696      -0.00059117
Au       3.93040588      -0.03473589       3.91890800      -1.42201618       0.00069391      -0.00084858      -0.00126360
Cu       3.94696304       1.85684369       5.84324699       2.67080708      -0.00069443       0.00083096      -0.00034846
Cu       5.81347721      -0.02040747       5.78862327       1.87768995       0.00184941       0.00002447      -0.00018692
Cu       5.81024748       1.88299960       3.95804606       1.75431345       0.00111896       0.00021963      -0.00109734
Au       3.86329086      -0.04206593       7.86726474      -0.97235620       0.00064866       0.00049728      -0.00112475
Cu       3.83039125       1.92807314       9.79797032       2.85857903       0.00049939      -0.00091313      -0.00041825
Al       5.83692821      -0.00334406       9.84264075      -2.96093694      -0.00059054      -0.00043873      -0.00016101
Au       5.87763103       1.84394405       7.76063766      -0.29854001      -0.00025436       0.00058368      -0.00011541
Al       3.87410742      -0.06190189      11.65323407      -3.29762410       0.00099629      -0.00082752       0.00016709
Al       3.92150372       1.90709652      13.70507575      -2.31169888       0.00058682       0.00078231      -0.00111431
Au       5.81746707      -0.09831424      13.64078267       0.26921431      -0.00104234      -0.00141077       0.00113063
Cu       5.86922119       1.95530422      11.77641506       3.12052565      -0.00003902      -0.00061657      -0.00077188
Al       3.94391593       3.85710143       0.07520984      -2.54223221      -0.00097955      -0.00011421       0.00012230
Al       3.92099786       5.78453462       2.01423719      -2.26143195      -0.00108604      -0.00027624       0.00097670
Cu       5.78482831       3.74013206       2.11970523       2.95882665       0.00019346       0.00185725       0.00100257
Au       5.79143198       5.91040309      -0.05261715      -0.19533665       0.00035893       0.00004193      -0.00024721
Cu       3.89277963       3.72506007       3.87367118       2.40332689       0.00088538       0.00061973       0.00007328
Au       3.83440861       5.90071328       5.82845775       0.52541861      -0.00043479       0.00021512      -0.00052221
Al       5.78088819       3.86996864       5.82641203      -3.01319097       0.00092015       0.00072323      -0.00001688
Al       5.81142506       5.88230490       3.90079705      -2.36216321      -0.00017348       0.00098351       0.00046777
Au       3.89786199       3.80690640       7.87173068       0.12209128      -0.00016239      -0.00055833      -0.00000438
Au       3.87964969       5.86522444       9.79970127       1.00103898       0.00004525      -0.00088830       0.00073068
Al       5.87688754       3.81596141       9.80414453      -2.35912497       0.00105386       0.00022753       0.00032756
Al       5.84205803       5.88489695       7.84542667      -2.05319349       0.00169384       0.00035987      -0.00006451
Au       3.91450868       3.83192317      11.75816867      -0.30153284       0.00088191       0.00121756       0.00019901
Cu       3.87442344       5.88560547      13.77059110       2.77248880       0.00047676       0.00151817      -0.00160882
Cu       5.79733170       3.95322130      13.67974368       3.27483497      -0.00044152       0.00158015      -0.00017557
Al       5.79884557       5.91062503      11.79778839      -2.60290454      -0.00093591       0.00099555       0.00134013
Au       3.84061793       7.88216184      -0.06195611      -0.78910888      -0.00069013       0.00005425       0.00071163
Cu       3.81077989       9.86394784       1.91227050       2.82327278      -0.00136839      -0.00037106       0.00035690
Au       5.81660399       7.92030135       1.95980289       0.49999776      -0.00014922      -0.00163105      -0.00075194
Au       5.81687896       9.83739876      -0.02006795      -0.27421279       0.00194811       0.00556447      -0.00002819
Au       3.76282676       7.97076718       3.91930100       0.48690744      -0.00061870       0.00120425      -0.00086831
Al       3.84291232       9.84057380       5.93593937      -2.31524176       0.00105006       0.00062236      -0.00003817
Au       5.81357138       7.87735113       5.87683543       0.92262321       0.00046919       0.00132664      -0.00037726
Al       5.87184435       9.83871583       3.90768718      -2.72441433       0.00209948      -0.00176251       0.00188192
Cu       3.90982274       7.82480319       7.82049280       3.45109755       0.00043746       0.00146454       0.00032255
Cu       3.90938145       9.91754033       9.98803280       2.42569390       0.00071386      -0.00122702      -0.00003560
Au       5.72805491       7.99501161       9.83349580      -0.03282459      -0.00186856       0.00008554      -0.00024026
Al       5.77307571       9.87964556       7.90922434      -2.54070941      -0.00092609       0.00026057      -0.00006073
Au       3.86939991       7.92252684      11.88737352      -0.66171393      -0.00074046      -0.00109757       0.00175251
Al       3.86823510       9.89024179      13.67713262      -3.72996899      -0.00166252      -0.00089065       0.00094141
Cu       5.85884151       7.89984092      13.74581529       2.73383345      -0.00194681       0.00167676      -0.00042180
Cu       5.80187343       9.88866332      11.76163084       2.21437348      -0.00040310       0.00259461       0.00152403
Au       3.78859589      11.84871043       0.00501291      -0.61199585       0.00894956       0.00072086       0.00341432
Al       3.84810672      13.85346934       1.98321973      -3.26625536       0.00167856      -0.00252229      -0.00102887
Au       5.81480219      11.76361023       1.93835805       0.59637144      -0.00202698       0.00115384      -0.00907544
Au       5.76354082      13.83064869      -0.00034258      -0.25808477      -0.00176178      -0.00737367       0.00047095
Au       3.84936546      11.75629791       3.92093582       0.36331502       0.00110456      -0.00098143       0.00097105
Al       3.84080006      13.78074577       5.90168079      -2.20276026       0.00063027      -0.00125339       0.00019383
Au       5.93612928      11.84007228       5.86171933       0.74800745      -0.00191325      -0.00154995      -0.00210871
Au       5.94326612      13.73144554       3.86580443       0.66511531      -0.00282266      -0.00151940      -0.00056679
Al       3.90668801      11.85335356       7.91098757      -2.24621147       0.00041326      -0.00064904       0.00129143
Cu       3.84087752      13.82600278       9.85761401       2.19742034       0.00067511       0.00010843      -0.00120828
Cu       5.74915861      11.75612707       9.93822845       2.37608437       0.00164339      -0.00077913       0.00216649
Al       5.80584221      13.75810628       7.95066945      -2.41125405       0.00094796      -0.00162942       0.00063734
Cu       3.90126737      11.88095717      11.70074251       1.83771488      -0.00246134      -0.00075939      -0.00157995
Cu       3.80158145      13.82467846      13.66895256       1.91772740       0.00065030      -0.00007500       0.00012627
Au       5.77302639      11.92125322      13.66516983      -0.54619956      -0.00159876       0.00004773       0.00346249
Au       5.70643234      13.82080007      11.68596777      -1.70505550      -0.00286761       0.00007911       0.00253860
Cu       3.79788567      15.68081036      -0.00179340       2.13027057      -0.00038511       0.00060011       0.00028858
Cu       3.87167887      17.54429937       1.94169769       2.42767671      -0.00059873      -0.00010682       0.00225211
Cu       5.83996850      15.76230542       1.97296221       2.88044542      -0.00158056      -0.00155659      -0.00123550
Au       5.77928456      17.51986055       0.04849141      -0.55771019      -0.00131404       0.00079044       0.00027401
Al       3.87597911      15.76638155       3.95254908      -2.66885783      -0.00061571      -0.00029208      -0.00102728
Cu       3.92380877      17.68324269       5.92891984       2.89177604       0.00134928       0.00116702      -0.00116212
Al       5.84336831      15.67618132       5.82843123      -2.31435936      -0.00179074       0.00015962      -0.00048824
Cu       5.79040901      17.68319740       3.90835925       2.61130499      -0.00072326      -0.00034331       0.00131389
Au       3.83148535      15.71596686       7.86376030      -1.01045020      -0.00157560      -0.00049451       0.00134207
Cu       3.82630193      17.57849734       9.81255408       2.19278002       0.00073315      -0.00107073      -0.00105021
Cu       5.69242229      15.76097396       9.86253591       2.22895771       0.00016204      -0.00155199      -0.00024380
Au       5.80861162      17.63077779       7.84301789      -0.27241757       0.00230436      -0.00082827      -0.00177158
Cu       3.80226646      15.71318025      11.69552567       1.54851085      -0.00053642       0.00043672      -0.00039668
Au       3.81333650      17.52763995      13.62119924      -1.14354661       0.00125026       0.00079032      -0.00025137
Al       5.77997820      15.63575624      13.67321805      -3.80401147      -0.00030039      -0.00076547      -0.00026480
Cu       5.79006802      17.50749338      11.72290164       2.49134701      -0.00115231      -0.00059511       0.00002497
Au       7.82346721      -0.03603851       0.00379055       0.16480269      -0.00133145      -0.00328643       0.00206985
Au       7.76302396       1.87920277       1.99309686      -0.44249284      -0.00024593       0.00098273      -0.00110068
Cu       9.77141819       0.04647395       1.94255028       2.32839854      -0.00123577      -0.00013080       0.00026295
Cu       9.78719983       1.85671221       0.06042958       2.58191538      -0.00156972       0.00064499      -0.00002202
Cu       7.74917787       0.03155970       3.92430487       2.23771286       0.00084095      -0.00073458      -0.00008490
Cu       7.75577176       1.87688774       5.78182401       2.51168915      -0.00011303      -0.00215121      -0.00182591
Al       9.78403249      -0.05139233       5.81773489      -2.55782534      -0.00070363       0.00009312      -0.00104440
Au       9.76437129       1.87291174       3.85342458      -0.65988781      -0.00052291       0.00116011      -0.00145874
Al       7.83125426      -0.06647482       7.84022665      -2.28066071      -0.00062862      -0.00074846      -0.00112936
Cu       7.84148432       1.94202256       9.79324784       3.44282585      -0.00030590       0.00007570       0.00245661
Al       9.80270353      -0.05170598       9.82312869      -1.75106597      -0.00078587       0.00078712       0.00028440
Au       9.76587973       1.93307025       7.79554790       0.76075259       0.00108566       0.00035565       0.00001347
Au       7.80557912       0.03734595      11.72630986       0.06745815      -0.00127096      -0.00086882      -0.00049744
Au       7.74795143       1.99201441      13.73068723       0.02397102      -0.00097853       0.00093183       0.00189149
Au       9.85148088       0.03984968      13.76548105       0.10062907      -0.00233044      -0.00048111      -0.00113077
Au       9.84300004       2.02918295      11.76930427       0.73381469      -0.00069334       0.00036677       0.00144879
Al       7.71600083       3.91544028       0.07196399      -2.36863994       0.00003460       0.00350058       0.00059634
Al       7.74306648       5.92253130       1.97716137      -2.51182038       0.00133947       0.00140051      -0.00031707
Al       9.75442916       3.89825793       1.91063626      -2.25620210      -0.00027507       0.00245844       0.00124168
Au       9.74915293       6.06834778       0.06973597       0.65429561      -0.00059560      -0.00075714      -0.00032259
Au       7.73550569       3.84039190       3.92128528       0.01431039       0.00029614       0.00210453       0.00043635
Au       7.84185454       5.97598102       5.84935776       0.33462439       0.00042430       0.00361012       0.00063383
Au       9.79734314       3.91498957       5.80334272      -0.29518643      -0.00126691       0.00097469      -0.00058594
Au       9.77851838       5.97075545       3.88918017      -0.46819686       0.00121727      -0.00040635       0.00069477
Au       7.81163610       3.85211263       7.77863483       0.74053521      -0.00055535       0.00114769      -0.00039286
Al       7.80251767       5.91186425       9.79404728      -1.29741214      -0.00015917       0.00080012       0.00092360
Al       9.81530029       3.93555316       9.76462909      -2.25228810      -0.00115545      -0.00102549      -0.00013721
Au       9.87154379       5.95547260       7.74904871       0.63349333       0.00038371      -0.00012659      -0.00027559
Al       7.77426444       3.91538156      11.75124068      -2.34355245      -0.00039325      -0.00030877      -0.00107548
Au       7.76531193       5.94088715      13.74011782       0.20301439      -0.00038248      -0.00054428       0.00060942
Au       9.78570543       3.91822571      13.84451776       0.52546080       0.00045438       0.00055506      -0.00026362
Au       9.81836245       5.85090082      11.78739095       1.37185354       0.00055009      -0.00043837       0.00057330
Cu       7.72833118       7.89023273      -0.01562635       2.95632452      -0.00045123       0.00331659      -0.00204723
Al       7.84635854       9.89392862       1.97008656      -2.94599543       0.00009986      -0.00056072      -0.00268854
Cu       9.76443155       7.90212723       1.97396132       2.88661357       0.00183362       0.00039782       0.00113218
Au       9.71606366       9.81229161       0.05031205      -0.80276034       0.00039254      -0.00042672      -0.00173976
Cu       7.87825563       7.87735801       3.94059650       3.07612133       0.00108337      -0.00069740      -0.00047181
Au       7.85131564       9.77586785       5.85271787       0.39013520       0.00154086       0.00170291       0.00257425
Cu       9.83774744       7.84167463       5.80199706       3.00520971      -0.00003985       0.00122924      -0.00005244
Au       9.79330502       9.77002792       3.91865309      -0.93615617       0.00385339      -0.00000414      -0.00027932
Al       7.81189621       7.92883728       7.92051789      -1.88161083       0.00059605       0.00004968      -0.00114281
Cu       7.72371158       9.92498298       9.91086254       3.06026067      -0.00060182       0.00206431       0.00297493
Al       9.85169316       7.89886925       9.82113431      -1.77447120      -0.00189917      -0.00026643       0.00253948
Al       9.84750164       9.75325717       7.84757238      -2.21068844      -0.00031013      -0.00040341      -0.00006179
Au       7.73410773       7.97315875      11.74607924       0.08464172       0.00241860      -0.00034980      -0.00038722
Au       7.74376712       9.89229939      13.73536639      -0.52108644      -0.00062276       0.00400850       0.00795996
Al       9.77146719       7.90754573      13.70853274      -2.65960028      -0.00158268       0.00015803       0.00054015
Au       9.80209415       9.92380529      11.75190430       0.56086947       0.00129245      -0.00093377       0.00152402
Al       7.89647122      13.55850608       1.84195795      -2.64188408      -0.00285698      -0.00205512      -0.00329890
Cu       9.90740330      11.75713106       2.03857733       2.78651068       0.00461254      -0.00127171      -0.00300188
Cu       9.75008432      13.65013163      -0.07621534       2.38443888       0.00044508      -0.00220683       0.00278442
Cu       7.87785888      11.80553921       3.96606777       3.11850564      -0.00060523       0.00157388      -0.00130585
Cu       7.86732046      13.66819485       5.88424837       3.31756347       0.00082133      -0.00250155       0.00122562
Al       9.81273846      11.73787505       5.91831657      -2.73606002      -0.00001345      -0.00009067      -0.00320555
Au       9.81264693      13.64959859       3.90285693      -0.07423801       0.00385368       0.00182321       0.00196633
Au       7.77536388      11.77209580       7.94774688       0.49002804       0.00101219      -0.00022756      -0.00243587
Al       7.75326060      13.80744136       9.85100600      -2.31790209       0.00028565      -0.00051633      -0.00018519
Au       9.86005692      11.79737402       9.76865742       0.50177873       0.00105775       0.00093502       0.00016032
Au       9.83338445      13.78392813       7.82673651       0.47551657       0.00085709      -0.00172486      -0.00047450
Al       7.76849025      11.86032488      11.76614439      -3.03073157       0.00046176      -0.00215754       0.00030649
Cu       7.82668428      13.73486876      13.79477967       2.29541209      -0.00182476      -0.00089981       0.00305130
Cu       9.71698842      11.75361951      13.82828457       2.80211286      -0.00366842      -0.00263179      -0.00048065
Al       9.76129890      13.72128881      11.83091659      -2.03070557       0.00334383       0.00347571       0.00111218
Au       7.85361217      15.62847099       0.02836159      -0.18836060       0.00013330      -0.00027831      -0.00367386
Au       7.80743084      17.68512923       2.08578447      -0.55633977       0.00003957      -0.00231258      -0.00057791
Al       9.82954934      15.64507590       1.98867167      -2.20984791       0.00304937       0.00105447      -0.00254778
Al       9.77545860      17.63006999       0.02770499      -2.51381740       0.00195432       0.00065079      -0.00007110
Al       7.83963749      15.65202845       3.87374570      -2.34269569       0.00102064       0.00101913      -0.00012408
Au       7.74797076      17.70855968       5.70905762       0.07414289       0.00142497      -0.00325495      -0.00117531
Al       9.80643557      15.72271691       5.77232692      -2.16983583      -0.00077138      -0.00145041      -0.00162655
Cu       9.79829201      17.75901002       3.80483648       3.10408786      -0.00118621      -0.00120467       0.00008814
Au       7.77615534      15.66967588       7.77796048       1.07226540       0.00027315      -0.00197815      -0.00118360
Au       7.73767556      17.46453427       9.93235241       0.24822811      -0.00130547      -0.00143230      -0.00065996
Al       9.83718019      15.61237550       9.85906783      -1.95344495      -0.00256380      -0.00115706       0.00297696
Al       9.79734809      17.54919758       7.82971940      -1.54807330      -0.00231526       0.00042609      -0.00194770
Cu       7.73296400      15.60594033      11.84809236       2.95714034      -0.00020812      -0.00174063       0.00086326
Au       7.79825441      17.54627658      13.63237520      -0.22363423       0.00124450      -0.00200342       0.00224468
Cu       9.66177928      15.59485750      13.76121892       3.05485792      -0.00125446       0.00191943       0.00273914
Al       9.85693395      17.53810681      11.82952135      -2.05211911      -0.00296571      -0.00066832      -0.00069871
Cu      11.71474066       0.11907652       0.04478853       2.53283533       0.00071392       0.00153858      -0.00104365
Cu      11.77415089       1.90427307       1.91587097       2.32603303      -0.00082355      -0.00002257      -0.00015353