399
Lattice="19.59262691714357 -0.0029401591670048664 0.00043227724696582155 -0.0029405439160256983 19.594541571232078 0.002722427805357169 0.0003459403246241731 0.002177382872289726 15.670877927394494" Properties=species:S:1:pos:R:3:energies:R:1:forces:R:3 energy=11.938337307472114 free_energy=11.938337307472114 stress="0.00031948536840012946 9.383598013055357e-05 -1.126334640130747e-05 9.383598013055357e-05 0.00014125327398603458 -2.4594970768808352e-05 -1.126334640130747e-05 -2.4594970768808352e-05 0.000934855820844512" pbc="T T T"
Au      -0.01609568       0.04708506       0.05616620      -1.21845606       0.00197615       0.00049013      -0.00054627
Cu      -0.09062038       1.89687333       1.89523720       2.72043211       0.00196450       0.00063379       0.00021455
Cu       2.03627684      -0.04042059       1.94780051       3.20935899      -0.00015043       0.00002652       0.00114122
Al       1.95534349       1.94084138       0.11435500      -3.31300526      -0.00059394      -0.00271453      -0.00117360
Al      -0.06734591      -0.01880175       3.85698223      -2.47208572      -0.00004989      -0.00000168      -0.00019959
Al      -0.08795555       1.96894911       5.79408483      -1.87259314       0.00059190       0.00051695       0.00093018
Al       1.90623359      -0.00490224       5.82950614      -2.19096219       0.00266443       0.00233011       0.00005349
Al       1.90121335       1.89163091       3.78639788      -2.80324604       0.00087735       0.00323616       0.00065296
Al      -0.07739970      -0.02451348       7.75165299      -2.47844254       0.00018929      -0.00073420      -0.00074374
Au      -0.00389666       1.92688576       9.75505147      -0.02382250       0.00006919      -0.00009091      -0.00052722
Cu       1.87261877      -0.10773698       9.80489917       2.19284522       0.00002373      -0.00122111      -0.00028579
Au       1.94690818       1.90334946       7.87320728      -0.59074529       0.00055607       0.00165741      -0.00041704
Cu       0.02868776      -0.11668891      11.73777784       2.00496115       0.00022187       0.00040842       0.00112710
Cu       0.00109811       1.89107227      13.77685189       2.56943954      -0.00143766      -0.00159318       0.00128774
Au       1.87695319      -0.03366159      13.66712196      -0.27743866      -0.00193431      -0.00105950       0.00029871
Au       1.89352066       1.87456610      11.68678355      -0.88423010      -0.00175043      -0.00054535      -0.00014330
Cu       0.01597852       3.84173203       0.09198206       2.22168461      -0.00233123      -0.00020573       0.00065881
Cu      -0.09473905       5.78417165       1.85820892       2.74069675      -0.00091337      -0.00165482       0.00073211
Cu       1.87266931       3.84557539       1.93417588       2.86553661      -0.00138101       0.00122175       0.00043007
Au       1.92823269       5.77940239       0.07317287      -0.34823607       0.00151120      -0.00061472      -0.00186192
Al      -0.06681043       3.85394094       3.80300539      -2.51421749       0.00117769       0.00331151      -0.00055252
Au      -0.00178952       5.76003250       5.91651933       0.14607258      -0.00020835      -0.00033020      -0.00093849
Au       2.01715480       3.77650608       5.80830891       0.33416290       0.00136947       0.00190423       0.00086288
Al       1.90436296       5.76411647       3.82492572      -2.29569987       0.00012755      -0.00034066       0.00075412
Cu       0.10312954       3.86748597       7.81871874       3.31058777      -0.00051060      -0.00146912       0.00121455
Au       0.04734194       5.83153044       9.71016990       0.58319874      -0.00320656       0.00015501      -0.00009242
Cu       1.95491748       3.83538666       9.79630457       2.85898861       0.00022682       0.00001671      -0.00152631
Al       1.97611362       5.85476219       7.82375675      -3.21914505      -0.00067377       0.00123216       0.00094415
Au       0.00510911       3.90583382      11.77142459       0.29950193      -0.00325669      -0.00196736       0.00024957
Au      -0.03900608       5.84864752      13.84074318       0.38931004      -0.00145406       0.00143527      -0.00010439
Au       1.91246770       3.83789715      13.78144589       0.18715554      -0.00056694      -0.00082779      -0.00173595
Al       1.97584100       5.86698363      11.81515078      -2.75877639       0.00031674       0.00008163      -0.00039865
Al       0.00236823       7.82536625       0.06349877      -2.95104579       0.00144920      -0.00037014       0.00072674
Au       0.04357991       9.78833572       2.05322661      -0.06160636       0.00086685      -0.00146699      -0.00021594
Al       1.93975488       7.82837106       1.94456417      -2.39712454      -0.00007039       0.00267204      -0.00075297
Cu       1.97694214       9.84391010       0.01178271       3.01487469      -0.00084128       0.00044325       0.00146544
Al       0.05700329       7.76205997       3.95484142      -2.59113001       0.00070825      -0.00140331      -0.00049872
Al       0.05335814       9.74692277       5.93428900      -2.71397532      -0.00046776      -0.00069280       0.00000795
Cu       1.95669136       7.80226363       5.93223649       3.14438517      -0.00152898       0.00024844      -0.00100189
Cu       1.92641726       9.89637946       3.93638217       3.06936961      -0.00136700      -0.00197628       0.00007577
Cu      -0.00505460       7.72954776       7.77031476       3.56783691      -0.00080741      -0.00048551       0.00022880
Al       0.00809947       9.79949774       9.71479273      -2.23520785      -0.00196312      -0.00071778      -0.00109983
Al       2.01248898       7.90037675       9.78997267      -2.20591552      -0.00165529      -0.00060767       0.00065913
Al       1.99548721       9.78479766       7.90078700      -2.12216757      -0.00184341      -0.00069243      -0.00094951
Al       0.08166371       7.85619051      11.74318562      -2.15436172      -0.00308111      -0.00106037      -0.00024825
Au       0.16512113       9.80011319      13.68891753       0.01743842      -0.00037692      -0.00027313       0.00147416
Cu       1.95878590       7.81530929      13.78461826       3.06439012      -0.00123544       0.00032242       0.00017241
Cu       2.01721474       9.92603539      11.72846593       2.94278696       0.00044722       0.00049244       0.00027240
Al       0.10095364      11.86224562      -0.03148296      -3.03321366      -0.00125177      -0.00000364       0.00120302
Cu       0.09746977      13.78587817       2.01919619       2.86640533       0.00051362      -0.00059496       0.00067437
Au       1.89204445      11.79973815       1.99219047      -1.08157810      -0.00104780      -0.00169136       0.00126037
Cu       1.99769520      13.83786341      -0.06919826       2.21035350       0.00040645       0.00034156       0.00172766
Cu       0.02439890      11.79580151       3.98160317       2.75939400       0.00043993      -0.00017127      -0.00070388
Au       0.03433938      13.81190284       6.08467366      -1.60610168      -0.00360665       0.00311777      -0.00228537
Au       1.86715405      11.79626974       5.95078405       0.08416372       0.00106352      -0.00175365       0.00042630
Au       1.86561001      13.80167032       3.96499565      -0.39725707      -0.00133120      -0.00151073      -0.00018765
Cu       0.03435859      11.89027728       7.89569086       3.25140679       0.00009277       0.00076578      -0.00158081
Au      -0.05083152      13.78991339       9.69887301      -2.02206595       0.00152675       0.00181132      -0.00066574
Au       2.02144536      11.86501436       9.82469146      -1.43409616       0.00174717       0.00056861      -0.00138635
Cu       1.92744748      13.81817821       7.92643129       2.66378218       0.00114465      -0.00044491       0.00071148
Au       0.00674792      11.80292639      11.66467566      -0.44421087       0.00048548       0.00018709       0.00003692
Au       0.03971219      13.82963623      13.58859062      -0.67987282       0.00092264       0.00027700       0.00115941
Au       2.02164712      11.89630701      13.59896671      -1.28366181      -0.00052917       0.00025274      -0.00134599
Cu       2.03863443      13.78743626      11.72043140       1.98650605       0.00113811       0.00145689       0.00006210
Au       0.07716715      15.60680697      -0.01004976      -0.52729398       0.00236535       0.00113392      -0.00002310
Al      -0.00154942      17.68621597       1.98492582      -2.50784150       0.00369254       0.00092686      -0.00117252
Cu       1.91266642      15.66183393       1.91844504       2.70308980      -0.00086053       0.00075372      -0.00097333
Au       1.97102840      17.57282220       0.05061420      -1.23192452       0.00023399      -0.00050900       0.00027864
Au       0.02663585      15.78770556       3.96998411      -0.33748319       0.00070598      -0.00072023       0.00004454
Cu      -0.08227589      17.60083016       5.87931149       2.88323842      -0.00070172      -0.00040969       0.00006200
Cu       1.85902237      15.76904617       6.00263368       2.62113980       0.00209335      -0.00064506      -0.00076472
Al       1.97450809      17.65893782       3.93013055      -2.63639354       0.00057345      -0.00173733      -0.00010361
Cu       0.02024594      15.73196858       7.91596362       2.23772639      -0.00038493       0.00285823      -0.00202055
Cu      -0.00284230      17.60206405       9.82524967       2.16069399       0.00007052      -0.00205042      -0.00130127
Au       1.93667085      15.71402597       9.84580930      -2.45985877       0.00050430      -0.00189002      -0.00091245
Au       1.85319778      17.64573881       7.84650670      -1.58530825       0.00234080      -0.00123521      -0.00032193
Al      -0.06946719      15.70399194      11.67171950      -4.10517581      -0.00126161       0.00027105       0.00038814
Au       0.00204940      17.57663753      13.63986077      -1.35921710      -0.00079889       0.00120328       0.00172356
Cu       1.99117370      15.65499111      13.65069158       1.87399867       0.00004264      -0.00051015       0.00089285
Cu       1.90882307      17.62692714      11.68983038       2.01688205       0.00183429       0.00101104       0.00068440
Au       3.86617557      -0.04257212       0.07130336       0.12313181       0.00008604      -0.00011085       0.00036106
Cu       3.90458750       1.94102485       2.06292049       2.58503467      -0.00069960       0.00176673      -0.00063482
Al       5.79694888      -0.02744501       1.99919263      -3.47527726      -0.00081735       0.00025635       0.00042402
Al       5.79463592       1.95076581       0.03006964      -2.29917452      -0.00005398       0.00032022      -0.00113127
Au       3.92832924      -0.02486313       3.91746175      -1.42453961      -0.00303559       0.00208137       0.00096742
Cu       3.94308818       1.86318163       5.84390604       2.67365172      -0.00040961       0.00234367      -0.00063106
Cu       5.80503702      -0.00982034       5.79302682       1.88739812       0.00032762       0.00048401       0.00033458
Cu       5.80977386       1.88732254       3.95616086       1.75746488      -0.00029439       0.00342208      -0.00025700
Au       3.86020656      -0.03408225       7.87184990      -0.98197993       0.00005947       0.00131227       0.00011766
Cu       3.82570017       1.93204143       9.79677376       2.87251033       0.00071033       0.00147699      -0.00051198
Al       5.83792344       0.00682195       9.84701446      -2.96305741      -0.00075365      -0.00023913      -0.00070336
Au       5.87746968       1.84696558       7.76152092      -0.29071134      -0.00148136       0.00268490      -0.00029113
Al       3.87372835      -0.05519431      11.65160617      -3.29631285      -0.00060925      -0.00060186      -0.00054240
Al       3.91903855       1.91092916      13.70232147      -2.31175328       0.00024832      -0.00078564      -0.00235689
Au       5.82057421      -0.09513284      13.63714215       0.26163668      -0.00102469      -0.00119315       0.00107151
Cu       5.87181789       1.95904418      11.78027761       3.12455899       0.00185058       0.00026806       0.00057903
Al       3.93727062       3.85789686       0.07093748      -2.53361011      -0.00066450       0.00018236      -0.00117730
Al       3.91052202       5.77552209       2.01535292      -2.26661681       0.00054569      -0.00041883      -0.00127593
Cu       5.78530226       3.74319836       2.11810655       2.94988927       0.00016072       0.00088017      -0.00047384
Au       5.79015451       5.90249275      -0.05782416      -0.21104749       0.00103140      -0.00071069      -0.00038262
Cu       3.88939868       3.72469460       3.87666577       2.40338670       0.00119133      -0.00019631       0.00090669
Au       3.82882718       5.89481226       5.82844036       0.51879649      -0.00104911       0.00034892       0.00021470
Al       5.78389977       3.86931123       5.82669077      -3.01250994       0.00025652      -0.00015041       0.00074476
Al       5.81132488       5.87720353       3.90386526      -2.36752772      -0.00002904       0.00153747      -0.00072604
Au       3.89351381       3.80553930       7.86822432       0.11585471      -0.00133208       0.00080543       0.00152183
Au       3.87169225       5.85999760       9.79736240       0.99102886       0.00141866       0.00078754       0.00080064
Al       5.87621630       3.81123094       9.80341580      -2.35967100       0.00146991       0.00125195       0.00057700
Al       5.84149557       5.87750393       7.84688601      -2.05084666       0.00091707       0.00091123       0.00009672
Au       3.90946257       3.83265756      11.75671095      -0.29747287       0.00081987      -0.00031269      -0.00003561
Cu       3.86836825       5.88166421      13.76528513       2.76904027      -0.00038269      -0.00170431      -0.00042097
Cu       5.79918927       3.95225281      13.67542906       3.27017195       0.00175231      -0.00112964       0.00019406
Al       5.79828134       5.90217981      11.79046638      -2.60999689       0.00183043      -0.00060575      -0.00058758
Au       3.83384138       7.87257894      -0.06728322      -0.78596378      -0.00016277      -0.00100989      -0.00042080
Cu       3.81435055       9.85826442       1.91132414       2.80362397      -0.00129987      -0.00087467       0.00131429
Au       5.80084376       7.89993151       1.95955979       0.53951505      -0.00075920      -0.00032911      -0.00063645
Au       5.82178041       9.82454528      -0.02153216      -0.32825543      -0.00025118      -0.00088804      -0.00053208
Au       3.75488180       7.96296008       3.92321838       0.48719376      -0.00048206       0.00196687      -0.00023687
Al       3.83987958       9.83078598       5.94298846      -2.31526560       0.00078156       0.00103060      -0.00064770
Au       5.81265425       7.86899281       5.88413840       0.92037759       0.00067102      -0.00066881      -0.00082731
Al       5.86729545       9.82234600       3.91320385      -2.72519677      -0.00165092      -0.00280479      -0.00070342
Cu       3.90410212       7.81722727       7.82152803       3.45040266      -0.00018871       0.00140693       0.00176685
Cu       3.90635082       9.91314289       9.99024779       2.42467167       0.00067019      -0.00021379      -0.00009539
Au       5.72324832       7.98523610       9.83058370      -0.02441993       0.00265201       0.00038383      -0.00014282
Al       5.77593016       9.87287217       7.91741722      -2.53222591       0.00159069       0.00139080      -0.00109745
Au       3.86167891       7.91592102      11.88355500      -0.66730125       0.00029361      -0.00111012      -0.00021766
Al       3.86840178       9.88444926      13.67368175      -3.72272995       0.00097651      -0.00053974       0.00019561
Cu       5.85095980       7.88063759      13.73279281       2.71873389       0.00102789      -0.00064883       0.00101743
Cu       5.80408673       9.87537560      11.75282794       2.19213269       0.00022665      -0.00095617      -0.00088030
Au       3.80449199      11.84352509       0.00855187      -0.60950500      -0.00071567      -0.00158462       0.00067217
Al       3.85253006      13.84857249       1.98597394      -3.26284332      -0.00064481       0.00010638       0.00152256
Au       5.83997316      11.76904936       1.95891737       0.49318550       0.00080586      -0.00148213      -0.00096217
Au       5.76766026      13.84196516       0.00162456      -0.28672479       0.00039865      -0.00004684       0.00098088
Au       3.84702661      11.74367460       3.92525620       0.35054661       0.00008219      -0.00101992       0.00127831
Al       3.83099186      13.77279340       5.91813850      -2.21932003       0.00093084      -0.00050103      -0.00018617
Au       5.93406502      11.82416639       5.87062823       0.75169484       0.00102346      -0.00142009      -0.00143880
Au       5.90917840      13.74143427       3.90792512       0.72718720      -0.00124119       0.00043849      -0.00014382
Al       3.90769785      11.84442609       7.92187331      -2.24406650      -0.00078608      -0.00067424      -0.00004114
Cu       3.83840979      13.82428372       9.85919465       2.19873604       0.00045251       0.00073392       0.00015287
Cu       5.76141577      11.75033412       9.94979005       2.36143433      -0.00106826      -0.00004561       0.00034972
Al       5.80771822      13.75065677       7.95909771      -2.41677609       0.00025789       0.00053354       0.00026743
Cu       3.89744860      11.88137989      11.69454248       1.83039538       0.00026959      -0.00087861       0.00084657
Cu       3.80351549      13.82408830      13.66371839       1.90256915      -0.00086445       0.00080721       0.00072947
Au       5.77307407      11.91812320      13.65012177      -0.56646192      -0.00070712       0.00002385       0.00161898
Au       5.71080766      13.82510288      11.67862220      -1.70445734      -0.00126418      -0.00050368       0.00008166
Cu       3.79333962      15.68464508      -0.00438231       2.11948435       0.00038867       0.00046813       0.00224662
Cu       3.86694219      17.55388151       1.94116454       2.42143219      -0.00122183       0.00081053       0.00237528
Cu       5.82213792      15.77954749       1.98566744       2.88574669      -0.00103530       0.00053622       0.00021818
Au       5.77237672      17.52259055       0.04332384      -0.55571649      -0.00275218       0.00082248       0.00129380
Al       3.86354654      15.77226290       3.96094368      -2.68339358      -0.00104081      -0.00106477       0.00089334
Cu       3.91923986      17.69252915       5.93523471       2.89211331      -0.00075901       0.00095711      -0.00121487
Al       5.82355068      15.68763985       5.85169098      -2.31456975      -0.00118968       0.00050711      -0.00025463
Cu       5.77986616      17.69287851       3.91931335       2.61100345      -0.00195017       0.00135744       0.00053907
Au       3.83021813      15.71569526       7.87346613      -1.00812211      -0.00072790      -0.00079539       0.00079602
Cu       3.82515746      17.58184032       9.81622378       2.19265342       0.00170476       0.00023087      -0.00054999
Cu       5.69791117      15.76390402       9.86194649       2.23655309      -0.00115089      -0.00036850       0.00065430
Au       5.80324544      17.63935404       7.85436335      -0.27533256      -0.00035551       0.00082175      -0.00108024
Cu       3.80289254      15.71402990      11.69126160       1.55278329       0.00121275       0.00048519       0.00075601
Au       3.81176013      17.53336082      13.61374500      -1.13546338      -0.00003740       0.00098763       0.00032511
Al       5.77714982      15.64400565      13.66408398      -3.81188344      -0.00050013      -0.00078715      -0.00094213
Cu       5.79364965      17.51521567      11.71793149       2.48755567       0.00026917      -0.00198765      -0.00005947
Au       7.82269322      -0.03751985       0.00369238       0.16663583       0.00215361      -0.00144056       0.00087972
Au       7.76300399       1.88111266       1.98957864      -0.43807321      -0.00004685       0.00192705       0.00138389
Cu       9.76967501       0.04736768       1.94805049       2.34828967      -0.00201148       0.00029353      -0.00118343
Cu       9.79648344       1.84710978       0.06207167       2.57532838       0.00088686       0.00010673       0.00083115
Cu       7.73948347       0.03597972       3.92509652       2.21810858      -0.00027976       0.00044993       0.00051711
Cu       7.75690818       1.87548832       5.78109728       2.51006481       0.00036778       0.00040077      -0.00013566
Al       9.78711547      -0.04749166       5.81582565      -2.57069673      -0.00018117      -0.00058888      -0.00109644
Au       9.76583313       1.87016226       3.84939491      -0.66179652      -0.00019097      -0.00068131       0.00255707
Al       7.83407627      -0.05798544       7.84754527      -2.28734352      -0.00151413       0.00090022      -0.00177417
Cu       7.85028232       1.94360603       9.79457716       3.45010843      -0.00002915       0.00023707      -0.00171950
Al       9.81200134      -0.05425841       9.81486957      -1.74726257      -0.00050281      -0.00031779      -0.00012875
Au       9.77932660       1.92696086       7.79154645       0.77974642      -0.00033691      -0.00178585      -0.00010048
Au       7.81244347       0.04039322      11.72449041       0.06588688       0.00100926      -0.00182164      -0.00061549
Au       7.75638379       1.99100162      13.73147328       0.02937849      -0.00097034      -0.00074337       0.00127270
Au       9.85663658       0.03244445      13.76836563       0.10422983       0.00108945       0.00091364       0.00026684
Au       9.85362575       2.02450810      11.76950660       0.72775046      -0.00010006       0.00037793       0.00098016
Al       7.72281913       3.91825086       0.06912389      -2.35826579       0.00057034       0.00010615       0.00044672
Al       7.75032356       5.92416687       1.97626026      -2.51460923      -0.00174427      -0.00005158       0.00037700
Al       9.75994070       3.89647830       1.90612453      -2.24859258      -0.00000633      -0.00007493       0.00044876
Au       9.75905804       6.06918638       0.06393189       0.64620764       0.00136146       0.00054903       0.00113701
Au       7.73959928       3.84012301       3.92059765       0.01540998      -0.00120349       0.00097509      -0.00121910
Au       7.84649750       5.97034383       5.85697184       0.32510001       0.00045820       0.00200079       0.00039841
Au       9.80414062       3.90666313       5.80246778      -0.29157882       0.00006286      -0.00113115       0.00051786
Au       9.78602018       5.96062126       3.89657027      -0.48724120       0.00058436      -0.00026525       0.00015085
Au       7.81905473       3.84418543       7.77705830       0.73366074       0.00126235      -0.00249206       0.00148477
Al       7.81119840       5.89458534       9.78232706      -1.29894417       0.00298846      -0.00027418       0.00185206
Al       9.82959650       3.92631220       9.75920485      -2.25606790       0.00103558      -0.00087868      -0.00070095
Au       9.88455549       5.95060055       7.74484490       0.62664566       0.00099931      -0.00100245      -0.00014478
Al       7.78225103       3.91093948      11.74881382      -2.34862355      -0.00011035       0.00107811      -0.00105308
Au       7.77156583       5.93539302      13.73321286       0.19033089       0.00013334       0.00189883       0.00048760
Au       9.79515669       3.91383126      13.84515866       0.53155493       0.00178645      -0.00087681      -0.00047390
Au       9.83365700       5.83559536      11.77849551       1.36638014       0.00279320      -0.00025209       0.00001722
Cu       7.72530299       7.87509845      -0.02715669       2.96692228       0.00025992       0.00119242       0.00078265
Al       7.84157072       9.82367523       1.98837870      -3.23248214      -0.00007822      -0.00099558      -0.00075272
Cu       9.78540096       7.88038623       1.98898974       2.94203184       0.00135006      -0.00043383      -0.00025417
Au       9.73710548       9.76206117       0.04221106      -0.83190218      -0.00213326      -0.00036462       0.00153503
Cu       7.88151578       7.86094650       3.95478913       3.10078475       0.00092368       0.00082764      -0.00094364
Au       7.85213422       9.76797951       5.85613360       0.39599671      -0.00042978       0.00019196      -0.00168467
Cu       9.84154344       7.84318409       5.80362345       2.99254062       0.00083980      -0.00042771      -0.00095481
Au       9.78741117       9.77230755       3.91291126      -0.88040941       0.00061786      -0.00119265      -0.00078549
Al       7.81846828       7.92544272       7.92851851      -1.87758886       0.00044716       0.00068346      -0.00300589
Cu       7.73336566       9.92690193       9.92304315       3.02917676       0.00058989      -0.00126189      -0.00129489
Al       9.87089059       7.88804548       9.81612713      -1.76267990       0.00316873      -0.00094552      -0.00077937
Al       9.85239609       9.75650285       7.85746138      -2.20480145       0.00030919      -0.00097737      -0.00014047
Au       7.74895656       7.94216533      11.71525669       0.13606574       0.00273840       0.00005163      -0.00070392
Au       7.75250927       9.84039608      13.69224303      -0.53855980       0.00215845      -0.00074205       0.00195934
Al       9.79747977       7.88776695      13.68480934      -2.63557118       0.00049812       0.00041587       0.00156420
Au       9.83395628       9.91495975      11.73546907       0.53732052      -0.00075862       0.00002683       0.00136408
Au       7.87067561      11.86764647      -0.05187784      -0.82275873      -0.00129313       0.00021208      -0.00083009
Al       7.85214585      13.71820915       1.95889203      -2.87231596      -0.00084309       0.00038270      -0.00000348
Cu       9.82543861      11.78052326       1.98880020       2.68319593      -0.00039031      -0.00013187       0.00029162
Cu       9.77081807      13.70386210      -0.04055587       2.57569311       0.00110458       0.00039026       0.00015384
Cu       7.86094767      11.80015849       3.95017871       3.07810510       0.00021094       0.00007499      -0.00054251
Cu       7.85540357      13.66419756       5.89125280       3.32342283      -0.00036696      -0.00119151      -0.00073305
Al       9.80248166      11.73038121       5.92022510      -2.72372276       0.00050838       0.00276722      -0.00020861
Au       9.79239985      13.64269177       3.91584110      -0.10420492       0.00024791       0.00053652       0.00268580
Au       7.77901823      11.76583850       7.95580589       0.48794550       0.00008007       0.00161677       0.00080542
Al       7.76426287      13.80456383       9.85693488      -2.31546133      -0.00112845      -0.00097397      -0.00174348
Au       9.87278838      11.80991638       9.77522328       0.49751149      -0.00207418      -0.00061584      -0.00155041
Au       9.83116653      13.78300238       7.81834145       0.47877852       0.00020717       0.00192049       0.00070156
Al       7.79680768      11.86573011      11.78791165      -3.05718602      -0.00275243      -0.00176215      -0.00213595
Cu       7.84455615      13.78221908      13.76364569       2.52153044      -0.00016339      -0.00064067      -0.00026027
Cu       9.77712628      11.75879411      13.79945993       3.05004475       0.00125549       0.00004585      -0.00098002
Al       9.78556703      13.74685158      11.83590551      -2.03846644      -0.00116890      -0.00072958      -0.00030897
Au       7.85716279      15.64401899       0.01919999      -0.20458249       0.00004544       0.00072466       0.00116887
Au       7.78726295      17.68540282       2.08685951      -0.55438303       0.00181814       0.00108995      -0.00062236
Al       9.80805846      15.68010858       2.01915641      -2.23826028      -0.00166906      -0.00050034      -0.00142831
Al       9.79273554      17.64396698       0.05500374      -2.54942056       0.00007774      -0.00116254      -0.00016483
Al       7.81448469      15.68600725       3.92523074      -2.34459770       0.00029803      -0.00021557      -0.00041699
Au       7.73499888      17.72813749       5.73132931       0.07339772      -0.00176869       0.00026063      -0.00214449
Al       9.80476691      15.72781744       5.77559744      -2.17766584      -0.00087261       0.00077171       0.00217390
Cu       9.75696711      17.78532082       3.81767671       3.17417863      -0.00340238      -0.00223275      -0.00019985
Au       7.77352325      15.67088125       7.78002432       1.06640839      -0.00043463       0.00182654      -0.00143956
Au       7.74242405      17.47345591       9.92404706       0.24996546      -0.00102944       0.00043310      -0.00062874
Al       9.83911600      15.61655133       9.84299800      -1.95137126       0.00033824      -0.00006141       0.00001228
Al       9.80871023      17.55198771       7.80824582      -1.55974285      -0.00068675      -0.00343519      -0.00095883
Cu       7.73776908      15.62099665      11.83805676       2.95352124      -0.00034213      -0.00135839       0.00008495
Au       7.80662369      17.55126301      13.63218790      -0.23033453      -0.00102062      -0.00132707       0.00187930
Cu       9.69657179      15.62592478      13.77992122       3.05440798      -0.00107094       0.00097762      -0.00090956
Al       9.85688150      17.53692835      11.81879027      -2.06342327       0.00049019       0.00009247       0.00072677
Cu      11.72877119       0.09626058       0.05488899       2.49836082       0.00081808       0.00003180       0.00175779