399
Lattice="19.59262691714357 -0.0029401591670048664 0.00043227724696582155 -0.0029405439160256983 19.594541571232078 0.002722427805357169 0.0003459403246241731 0.002177382872289726 15.670877927394494" Properties=species:S:1:pos:R:3:energies:R:1:forces:R:3 energy=12.082964930666614 free_energy=12.082964930666614 stress="0.0007967121068954005 -0.00011483818765260866 -3.008283909531405e-05 -0.00011483818765260866 0.0001387391531723304 -0.00011125559635355872 -3.008283909531405e-05 -0.00011125559635355872 0.0006152435936788667" pbc="T T T"
Au      -0.01681554       0.04955351       0.05968186      -1.22611982      -0.00011216      -0.00168225       0.00159668
Cu      -0.08433269       1.90450908       1.89250808       2.73060819       0.00008806      -0.00032139      -0.00051748
Cu       2.03766055      -0.04193047       1.95098319       3.21436326      -0.00028450      -0.00011543      -0.00028108
Al       1.96209555       1.93890204       0.11663391      -3.31520303       0.00049083      -0.00022443      -0.00116319
Al      -0.07087995      -0.01552943       3.84963834      -2.48421053       0.00176598       0.00020680      -0.00129667
Al      -0.07986052       1.97720849       5.79575552      -1.88443903      -0.00073543      -0.00103511      -0.00134889
Al       1.90242469       0.00028934       5.82777703      -2.18714100       0.00125836      -0.00076180      -0.00238120
Al       1.90397338       1.89297793       3.78503488      -2.80961591       0.00003942       0.00059189       0.00128126
Al      -0.07808932      -0.02040873       7.75059990      -2.47747492      -0.00071831      -0.00039378       0.00397716
Au       0.00162833       1.92712785       9.75738082      -0.01702169       0.00159172       0.00153722       0.00181363
Cu       1.87178684      -0.11711096       9.79953525       2.17450324      -0.00001234      -0.00211225      -0.00082649
Au       1.95121944       1.90195645       7.87447208      -0.59180384       0.00178836       0.00112315       0.00001883
Cu       0.03417687      -0.11772366      11.74410589       2.01466866      -0.00066068      -0.00014023      -0.00160626
Cu       0.00632083       1.89210900      13.78270245       2.56718956      -0.00085947       0.00076202      -0.00248863
Au       1.88214568      -0.03549540      13.67389681      -0.27351067       0.00137389       0.00184584      -0.00413366
Au       1.89693006       1.86935927      11.68823815      -0.87906559       0.00335306       0.00084364       0.00127040
Cu       0.02466048       3.84497383       0.09154546       2.22818620       0.00019169      -0.00088300      -0.00148417
Cu      -0.08619950       5.78824351       1.85814432       2.75751104      -0.00067112       0.00029420       0.00022923
Cu       1.88172241       3.84649340       1.93416391       2.87497525      -0.00006577       0.00054628       0.00062542
Au       1.93803401       5.77750829       0.07389444      -0.35503741       0.00131100      -0.00072281      -0.00186378
Al      -0.05307030       3.86595306       3.79953911      -2.52149064       0.00075172       0.00035329       0.00193848
Au       0.00675311       5.76113194       5.91557050       0.14432387       0.00056726      -0.00052657       0.00075435
Au       2.02556015       3.77667599       5.80896362       0.33364938      -0.00055986       0.00096801      -0.00157678
Al       1.91225864       5.76677482       3.82632529      -2.29197910      -0.00033426       0.00060916       0.00011633
Cu       0.11387612       3.86952727       7.82199595       3.32427469      -0.00044359       0.00006569      -0.00036166
Au       0.05699363       5.83330282       9.71005341       0.58972575      -0.00060371      -0.00038744       0.00094093
Cu       1.96067358       3.83371610       9.79859498       2.86337290      -0.00113090       0.00016110      -0.00100425
Al       1.97988146       5.85450001       7.82381243      -3.21998999       0.00147495       0.00263147       0.00043515
Au       0.01184061       3.90654314      11.77355505       0.30013606       0.00054390       0.00180331      -0.00058812
Au      -0.02899162       5.84865259      13.83899660       0.39375730      -0.00204186      -0.00126523      -0.00075485
Au       1.92019884       3.83632601      13.78129190       0.18494025       0.00035326       0.00079416      -0.00087396
Al       1.98353500       5.86845662      11.81240491      -2.76248741      -0.00024808       0.00076276      -0.00113014
Al       0.01473534       7.81816594       0.06358871      -2.95976592       0.00080670       0.00015384       0.00027203
Au       0.04826710       9.77654803       2.04430321      -0.10906667       0.00647776      -0.00426236      -0.00015988
Al       1.94713156       7.82684501       1.94835862      -2.39339423      -0.00302243       0.00183133       0.00049788
Cu       1.98453625       9.84472592       0.01807593       3.03150835      -0.00051981      -0.00108638       0.00003356
Al       0.06271284       7.76403047       3.95654683      -2.59896036       0.00131472       0.00124583      -0.00141237
Al       0.06164924       9.75345384       5.92612540      -2.66695847       0.00001352      -0.00141089      -0.00099804
Cu       1.95397160       7.80568072       5.93907375       3.15320060       0.00009385      -0.00050096      -0.00101835
Cu       1.91615389       9.91237192       3.94291280       3.06596679      -0.00128132       0.00060769      -0.00144583
Cu       0.00084771       7.73539015       7.76513487       3.57246679       0.00057705      -0.00158128       0.00020830
Al       0.00913248       9.80889194       9.70659501      -2.21724878      -0.00153502      -0.00022650       0.00174263
Al       2.01295538       7.91484248       9.77189850      -2.23060134       0.00172647       0.00011162       0.00271314
Al       1.96904766       9.82692840       7.88171612      -2.07251194       0.00093361       0.00067888      -0.00019514
Al       0.09560353       7.85786081      11.73705520      -2.15748636       0.00048826      -0.00133666      -0.00063949
Au       0.17861703       9.78760763      13.69323829       0.01671518      -0.00213572      -0.00192783       0.00217324
Cu       1.97007728       7.80928971      13.78494528       3.07973889      -0.00164254       0.00120973      -0.00032484
Cu       2.02474630       9.93158068      11.72308074       2.94295877       0.00033888      -0.00219773      -0.00112068
Al       0.10384276      11.84954982      -0.03553962      -3.04557615      -0.00045882       0.00234081      -0.00000843
Cu       0.09071378      13.78856291       1.99485618       2.91072062       0.00149620      -0.00102009       0.00027851
Au       1.88521642      11.81168424       1.99238529      -1.11705884       0.00107225       0.00119380       0.00106624
Cu       1.98945613      13.84178622      -0.06478686       2.20386798      -0.00033733       0.00093555      -0.00043609
Cu       0.01304916      11.75360921       3.92929902       2.87114203       0.00105190       0.00223333       0.00099775
Au       1.75177868      11.90349050       5.95054626      -0.04054782      -0.00474709       0.00311210       0.00275582
Au       1.78846538      13.81016865       3.99385345      -0.40688429      -0.00218095       0.00061832       0.00069219
Cu       0.00653015      11.95762401       7.89522048       3.05150964       0.00296010       0.00428936      -0.00246649
Au      -0.04662956      13.79108996       9.75441782      -2.04071782      -0.00266611      -0.00201945      -0.00034902
Au       2.01509669      11.87948509       9.81668569      -1.40255129      -0.00104135      -0.00114857       0.00078005
Cu       1.87296517      13.83215757       7.89350461       2.37558949      -0.00294259      -0.00050816      -0.00101853
Au       0.01572431      11.78705901      11.67965955      -0.43321035       0.00046543      -0.00107764      -0.00151165
Au       0.04203090      13.82465198      13.59298599      -0.68435968      -0.00057021      -0.00154870      -0.00046139
Au       2.02834094      11.89584934      13.60426086      -1.27801416       0.00030968      -0.00158523       0.00132588
Cu       2.04367731      13.78965027      11.72749966       1.98756812       0.00035105       0.00164579       0.00101176
Au       0.06600841      15.61387612      -0.01192316      -0.54537347       0.00163855       0.00021413      -0.00104235
Al      -0.00675370      17.69168789       1.97872919      -2.50894285      -0.00038468      -0.00100452       0.00029929
Cu       1.89829300      15.66355628       1.92388533       2.72097655      -0.00146654      -0.00158064       0.00276437
Au       1.97141502      17.57155722       0.05678763      -1.24152989      -0.00016664       0.00216615      -0.00224874
Au       0.01053212      15.80820059       3.94325778      -0.28044066      -0.00040750      -0.00028115       0.00166881
Cu      -0.10003336      17.61747412       5.86085702       2.91444398      -0.00048267      -0.00044252       0.00027038
Cu       1.79385182      15.73293811       5.99657482       2.40121523       0.00252792       0.00198087      -0.00105456
Al       1.96594868      17.66103018       3.93752203      -2.62492492      -0.00095736       0.00127704      -0.00133396
Cu       0.02844829      15.68390935       7.92897628       2.07081663       0.00194408      -0.00422821      -0.00084639
Cu       0.00650885      17.59471836       9.83155434       2.18994062      -0.00048960       0.00106406       0.00114166
Au       1.93499719      15.71260941       9.84274004      -2.48421956       0.00355279      -0.00019224       0.00104958
Au       1.83206986      17.63127081       7.82555165      -1.55310693      -0.00007977      -0.00337325       0.00061903
Al      -0.05992788      15.71466209      11.69335879      -4.12344434       0.00179026       0.00160063       0.00152845
Au      -0.00452602      17.58743743      13.65320961      -1.35377830       0.00026638       0.00393423       0.00315087
Cu       1.98794679      15.65852641      13.65983828       1.88391369       0.00110597      -0.00149657      -0.00055631
Cu       1.91197004      17.62452328      11.69721905       2.01433325      -0.00001125       0.00317455      -0.00124738
Au       3.87072236      -0.04831877       0.07801146       0.11954833       0.00197676       0.00085009       0.00118517
Cu       3.90982767       1.93605513       2.06556870       2.58676003      -0.00011553       0.00138450      -0.00014076
Al       5.80364034      -0.03752771       2.00527806      -3.47501332       0.00146498       0.00041547      -0.00026925
Al       5.79528401       1.94602489       0.03549615      -2.29706158       0.00124958       0.00071439      -0.00034609
Au       3.92876995      -0.02970520       3.91879633      -1.43238276      -0.00122455      -0.00038499      -0.00098015
Cu       3.94492907       1.85889384       5.84322973       2.67847711      -0.00085285      -0.00003365       0.00032225
Cu       5.80690537      -0.01780404       5.79141690       1.88662430      -0.00089231      -0.00137557      -0.00027052
Cu       5.81138319       1.88291217       3.95709861       1.75583091       0.00159555       0.00129336      -0.00028802
Au       3.85274281      -0.04573650       7.86714748      -0.98856962       0.00001553      -0.00005252       0.00025204
Cu       3.82749228       1.92608022       9.79662371       2.86668813       0.00167805      -0.00096295      -0.00012688
Al       5.83166582      -0.00327676       9.84264219      -2.95957223       0.00039430       0.00081301       0.00064528
Au       5.87117375       1.84157594       7.76138278      -0.29994076       0.00091864      -0.00043797      -0.00082357
Al       3.87176560      -0.06535208      11.65095041      -3.29653339       0.00200577       0.00197055       0.00120511
Al       3.92279303       1.90753690      13.70275473      -2.31428714       0.00177893       0.00032203      -0.00036759
Au       5.81815546      -0.10016946      13.64029466       0.27010969      -0.00035454      -0.00099974       0.00146637
Cu       5.86718799       1.95489463      11.77630408       3.11887540       0.00319605       0.00007650      -0.00120993
Al       3.94289319       3.85607843       0.07373684      -2.53703655       0.00025343       0.00126560       0.00056183
Al       3.91511985       5.77772287       2.02012610      -2.26578647       0.00109930      -0.00121883      -0.00005723
Cu       5.78709661       3.74276802       2.12201988       2.95121234      -0.00007852       0.00100467      -0.00126500
Au       5.78845069       5.90616209      -0.05138491      -0.20853654       0.00062877      -0.00058589       0.00135232
Cu       3.89239540       3.72324690       3.87566849       2.40821002       0.00047362       0.00036816      -0.00006416
Au       3.82853600       5.90027324       5.83110584       0.53198250       0.00064423      -0.00114960       0.00050463
Al       5.77953281       3.86839001       5.82658639      -3.01295310       0.00095309      -0.00089086       0.00071810
Al       5.80768676       5.88320411       3.91054948      -2.36046470      -0.00013743       0.00041086      -0.00031456
Au       3.89530063       3.80583873       7.87145248       0.12287336       0.00042843       0.00222135      -0.00095292
Au       3.87066447       5.86792870       9.79411843       1.00825077       0.00153947      -0.00003380      -0.00190789
Al       5.87346271       3.81450397       9.80170355      -2.35710197       0.00006912       0.00163777      -0.00247282
Al       5.83431389       5.88736338       7.84204897      -2.04414506      -0.00123147       0.00083224       0.00024667
Au       3.91105967       3.83148732      11.75459407      -0.30054883       0.00085113       0.00068258      -0.00167539
Cu       3.87251255       5.88517340      13.76545214       2.75380640       0.00047639      -0.00018781       0.00021955
Cu       5.79537845       3.95525593      13.67709687       3.26815161       0.00315556      -0.00040973      -0.00000683
Al       5.79234972       5.90754730      11.78707151      -2.60526850       0.00072593       0.00024892      -0.00206331
Au       3.83564420       7.87593706      -0.05946810      -0.77958814       0.00024772      -0.00031236      -0.00121760
Cu       3.80484806       9.87111781       1.92740534       2.79403919      -0.00117926       0.00155207       0.00032987
Au       5.79429731       7.90853452       1.97203807       0.53969063       0.00153884      -0.00035514       0.00033134
Au       5.81386621       9.83199530      -0.00953572      -0.31634174       0.00074909       0.00012883       0.00026439
Au       3.74501009       7.97576307       3.93428494       0.47728682       0.00252585      -0.00115948       0.00009484
Al       3.79137746       9.87727583       5.93759696      -2.30077550      -0.00093481       0.00228341      -0.00068038
Au       5.79575713       7.88995549       5.88511559       0.90344835       0.00195016       0.00175239      -0.00070275
Al       5.84403514       9.84127653       3.92078324      -2.71322511      -0.00092036       0.00022438      -0.00028943
Cu       3.88945716       7.84092355       7.81172681       3.42106980      -0.00056692      -0.00006887       0.00054646
Cu       3.89617552       9.92637998       9.96808683       2.41337612      -0.00065107      -0.00104745       0.00272273
Au       5.71424050       7.99824448       9.81644498      -0.03706318       0.00165862       0.00056255      -0.00008864
Al       5.75535734       9.89497902       7.90100787      -2.54901529      -0.00027442      -0.00039946       0.00172003
Au       3.85992679       7.92493633      11.87364869      -0.66266606       0.00145163      -0.00115403       0.00065777
Al       3.86963807       9.88452304      13.67747908      -3.72307645       0.00283888      -0.00021097      -0.00137017
Cu       5.84171599       7.88258563      13.73602529       2.72182833       0.00197425      -0.00070170       0.00024648
Cu       5.78987460       9.88590273      11.74150656       2.19335006       0.00241702      -0.00101433       0.00093088
Au       3.80238240      11.85150440       0.01721267      -0.61225967       0.00019109      -0.00064410       0.00078890
Al       3.82743100      13.85553652       2.00879495      -3.25884903      -0.00399194       0.00157950      -0.00080249
Au       5.82501659      11.77823006       1.97552703       0.48841799      -0.00052859       0.00045503      -0.00259744
Au       5.76232099      13.84535334       0.02047270      -0.29307644       0.00149669      -0.00097300      -0.00084855
Au       3.80742564      11.77694246       3.94660052       0.37958977      -0.00208687      -0.00210619       0.00251279
Al       3.82165203      13.78151993       5.90062556      -2.14002555       0.00092944      -0.00012843       0.00096660
Au       5.93033038      11.84010571       5.86157460       0.76200442      -0.00059278      -0.00209028       0.00049772
Au       5.90895784      13.75489196       3.90355815       0.72303527       0.00053727       0.00065399      -0.00095165
Al       3.87136862      11.87496589       7.88973808      -2.20368441      -0.00056241      -0.00123508      -0.00216810
Cu       3.82892844      13.82957457       9.84622666       2.22116847      -0.00004789       0.00124643       0.00198726
Cu       5.74278238      11.76158456       9.93019842       2.35245122      -0.00004954      -0.00179355       0.00182153
Al       5.80028741      13.75786578       7.94697290      -2.41799115      -0.00141940      -0.00083929       0.00036908
Cu       3.89238598      11.88290766      11.68964802       1.82574086       0.00042707      -0.00293885       0.00076575
Cu       3.80017938      13.83006226      13.67216149       1.91023830       0.00062729       0.00065928       0.00032381
Au       5.76314923      11.92586937      13.65390816      -0.57109672       0.00058228       0.00087434       0.00240413
Au       5.69825468      13.82638368      11.67265811      -1.70998825      -0.00015623      -0.00058611       0.00027084
Cu       3.79081646      15.68230152       0.00758165       2.12119409       0.00077604       0.00241331      -0.00038714
Cu       3.86437738      17.54834889       1.94995187       2.41303736      -0.00008035       0.00125112       0.00107440
Cu       5.82071628      15.77955764       1.99764588       2.86846970      -0.00184903       0.00100220       0.00066541
Au       5.77669299      17.51502828       0.05163245      -0.55268087      -0.00065191       0.00236806      -0.00201712
Al       3.83535108      15.76657039       3.97132255      -2.65228611       0.00026196      -0.00164228      -0.00178360
Cu       3.91038259      17.68750163       5.93067374       2.92419383      -0.00141307       0.00076062       0.00129560
Al       5.82525458      15.68968273       5.84415208      -2.32105107      -0.00085904       0.00205002       0.00025478
Cu       5.78011971      17.68250282       3.91979755       2.58922231      -0.00088196       0.00094058      -0.00162085
Au       3.80696451      15.71078366       7.85197087      -0.96995680       0.00046636      -0.00158685      -0.00054149
Cu       3.81646132      17.57637635       9.80329800       2.19188054      -0.00014651       0.00044015       0.00130033
Cu       5.68476838      15.76200465       9.85097937       2.22801260      -0.00072825       0.00185692       0.00289424
Au       5.79762094      17.63004025       7.84679804      -0.28376250      -0.00020842      -0.00137562       0.00125134
Cu       3.79902464      15.71649096      11.69202918       1.55298072      -0.00068590       0.00004106       0.00130875
Au       3.81462042      17.52767351      13.62298318      -1.13777500       0.00129099       0.00173731      -0.00243242
Al       5.77752465      15.63558441      13.67003764      -3.81041300       0.00036795       0.00125109       0.00019971
Cu       5.78599268      17.50588414      11.71750893       2.48456621       0.00167174       0.00000949       0.00106555
Au       7.82284022      -0.04048546       0.00522632       0.16794240       0.00108810       0.00075135       0.00130584
Au       7.76521718       1.87849760       1.99330330      -0.44091546       0.00076848       0.00036405       0.00158900
Cu       9.77525355       0.04313177       1.94450995       2.31816532       0.00019051       0.00059092       0.00176694
Cu       9.78855751       1.85343399       0.06223429       2.57344023       0.00006719       0.00079196       0.00066666
Cu       7.74877481       0.02914453       3.92449581       2.23461673       0.00049225       0.00112534       0.00024140
Cu       7.75399585       1.87193104       5.78061661       2.50367952       0.00124159       0.00038507       0.00092537
Al       9.78797870      -0.04923075       5.81996905      -2.56311487      -0.00014702      -0.00005228       0.00067161
Au       9.76842695       1.86743042       3.85229215      -0.66414855       0.00117796       0.00106416       0.00114763
Al       7.82808554      -0.06211138       7.84724729      -2.28530239       0.00039730       0.00143611      -0.00020937
Cu       7.83999464       1.94300603       9.79372881       3.44316331       0.00094172      -0.00090867      -0.00022087
Al       9.80564710      -0.04932836       9.82323892      -1.74706356       0.00031053      -0.00053448      -0.00232693
Au       9.77018395       1.92993077       7.79436334       0.77230659       0.00060196      -0.00232849      -0.00088144
Au       7.80450391       0.03900161      11.72470253       0.06644252       0.00051222      -0.00133838      -0.00087500
Au       7.74805701       1.99189031      13.73188734       0.02811687       0.00078087       0.00001449       0.00082803
Au       9.85149195       0.03990259      13.76455432       0.10504066      -0.00096032      -0.00038789       0.00067373
Au       9.84398918       2.03075735      11.76938906       0.73044607      -0.00051029      -0.00004695      -0.00007003
Al       7.71797829       3.91981225       0.07333076      -2.36159332       0.00178704       0.00027083       0.00018308
Al       7.74413839       5.92883646       1.98303262      -2.51448081       0.00130471      -0.00077751       0.00087112
Al       9.75561091       3.90064446       1.91307505      -2.24657009       0.00045377      -0.00031394       0.00039374
Au       9.75127808       6.07321698       0.06909423       0.64631754      -0.00012926      -0.00013708       0.00082595
Au       7.73728237       3.84002084       3.92380007       0.01157487       0.00051074       0.00103649       0.00045815
Au       7.83615773       5.97898283       5.85609755       0.32806638       0.00056217      -0.00126349      -0.00088987
Au       9.79916387       3.90702593       5.80352591      -0.28830197       0.00027290      -0.00061108       0.00061672
Au       9.78216460       5.96498997       3.90170909      -0.48865183       0.00023613      -0.00084030       0.00030130
Au       7.80925306       3.84559729       7.77332698       0.73700543       0.00161516       0.00113102       0.00012818
Al       7.80211417       5.90059161       9.77716678      -1.29696319       0.00176816      -0.00012824      -0.00004806
Al       9.81806591       3.92995363       9.75692472      -2.25176009       0.00091576       0.00038390      -0.00086795
Au       9.87680994       5.95150561       7.74007920       0.62793332      -0.00066731      -0.00026477      -0.00127544
Al       7.77234699       3.91447787      11.74903495      -2.34682343       0.00129353      -0.00010223      -0.00079944
Au       7.76262590       5.93988990      13.73494682       0.19035444       0.00077154      -0.00061868      -0.00070077
Au       9.78599134       3.91848016      13.84592555       0.53200925       0.00063307       0.00016360       0.00073791
Au       9.82261476       5.83794467      11.77729615       1.36800037       0.00062007       0.00032763      -0.00019984
Cu       7.71448105       7.88018530      -0.01962039       2.96530968       0.00103186      -0.00165302       0.00016861
Al       7.83309939       9.83349506       2.00073064      -3.23055287       0.00044011      -0.00186333       0.00122622
Cu       9.78144518       7.88448984       1.99506589       2.93801333      -0.00040479      -0.00040404       0.00161402
Au       9.72569479       9.75811629       0.04771062      -0.84232007      -0.00097225      -0.00092232       0.00116087
Cu       7.87433894       7.86996189       3.95737261       3.09230091      -0.00050978       0.00148340      -0.00067466
Au       7.84607652       9.78000238       5.84766735       0.38709224       0.00001665       0.00059828      -0.00034664
Cu       9.83521116       7.84806512       5.80111695       3.00011290       0.00155634      -0.00046235       0.00036463
Au       9.79029202       9.77857348       3.91441713      -0.88077570       0.00077451       0.00095640       0.00091326
Al       7.80795897       7.93559318       7.91926127      -1.88371693      -0.00085841      -0.00025496      -0.00074788
Cu       7.71864529       9.92977240       9.91094193       3.03255844      -0.00072269      -0.00017147      -0.00174826
Al       9.85963493       7.88632350       9.80961019      -1.76483320       0.00043053       0.00089797      -0.00224150
Al       9.84675552       9.75518823       7.84751529      -2.20868815      -0.00048844       0.00128500      -0.00173485
Au       7.73265925       7.94669641      11.71105567       0.14191772       0.00146789       0.00128132      -0.00027938
Au       7.73505554       9.84019362      13.69392361      -0.54941611       0.00192426       0.00027838       0.00033837
Al       9.78209272       7.88723305      13.68660667      -2.63320797       0.00136760      -0.00159931      -0.00046998
Au       9.81517743       9.90630856      11.73187400       0.54379915      -0.00020801       0.00052966      -0.00070324
Au       7.85749449      11.86419641      -0.04554554      -0.81901322      -0.00085033      -0.00089200       0.00178993
Al       7.86312747      13.71930305       1.96285792      -2.87544356      -0.00002205       0.00005554       0.00192607
Cu       9.82803819      11.78172445       1.99265376       2.67519314      -0.00026417      -0.00057964       0.00097673
Cu       9.76165394      13.68523037      -0.05485224       2.59641415      -0.00013043       0.00004557       0.00124923
Cu       7.86898273      11.81536813       3.95080546       3.05821402      -0.00019311       0.00035659       0.00015270
Cu       7.86492654      13.67017598       5.88535795       3.31153928      -0.00359088       0.00001747      -0.00019212
Al       9.80697840      11.73890317       5.91707053      -2.72618928       0.00016443       0.00069310      -0.00078095
Au       9.82047581      13.65835094       3.91246232      -0.03235052      -0.00046455      -0.00001120       0.00015215
Au       7.77472647      11.77173293       7.94618629       0.48546909      -0.00152883       0.00069406      -0.00095097
Al       7.75352807      13.80364907       9.85083123      -2.31744768      -0.00016068       0.00006833       0.00057411
Au       9.86208601      11.79756078       9.76915244       0.50976690      -0.00091754       0.00230846      -0.00199348
Au       9.83355949      13.78231445       7.82729855       0.48098217      -0.00047301       0.00085142      -0.00071180
Al       7.77714120      11.86036526      11.77932501      -3.06101999      -0.00053788       0.00016923      -0.00108002
Cu       7.83449238      13.77126614      13.76109106       2.51422885       0.00071536       0.00164650       0.00092520
Cu       9.75847127      11.74251905      13.79324795       3.04971640      -0.00052544      -0.00039711       0.00116302
Al       9.77527956      13.72942370      11.82350606      -2.03815240      -0.00031143       0.00073166      -0.00098131
Au       7.86202692      15.63649442       0.02055047      -0.18984163       0.00019332       0.00103748       0.00155230
Au       7.80385372      17.67916037       2.08886741      -0.53444065      -0.00031616       0.00024616       0.00080806
Al       9.84367906      15.67632900       2.00879798      -2.22909711      -0.00099689      -0.00029860       0.00188449
Al       9.78602542      17.63750733       0.03351004      -2.52375324      -0.00100896      -0.00148186       0.00121965
Al       7.83414939      15.68464888       3.92201612      -2.33959312      -0.00110275       0.00092367       0.00006220
Au       7.74374020      17.72335105       5.72765982       0.09317599      -0.00028742      -0.00083761      -0.00135735
Al       9.81760152      15.72776528       5.78246354      -2.15893780       0.00039193       0.00002526      -0.00127560
Cu       9.79582378      17.77120468       3.81218329       3.11186714       0.00004235      -0.00094219       0.00182937
Au       7.77556309      15.67018283       7.77764111       1.06649509      -0.00151097      -0.00233775      -0.00272815
Au       7.73426416      17.46829600       9.92703826       0.24638161       0.00018708      -0.00043817      -0.00112598
Al       9.83760326      15.61490590       9.85490087      -1.94814894      -0.00046585       0.00104767      -0.00275633
Al       9.79841448      17.55432448       7.83126074      -1.54549776      -0.00121299      -0.00205092      -0.00133549
Cu       7.73065646      15.61366795      11.83585036       2.94878502      -0.00021720       0.00173787       0.00173434
Au       7.79914967      17.54653345      13.62947725      -0.22538159       0.00065651       0.00091023      -0.00007859
Cu       9.67962279      15.61183461      13.75788997       3.05599153       0.00034490       0.00003278      -0.00079240
Al       9.85697462      17.54155798      11.82340669      -2.05570750       0.00162130       0.00106469      -0.00372162
Cu      11.72224356       0.11813463       0.04650353       2.51728813      -0.00040033      -0.00028395      -0.00039713
Cu      11.77933203       1.89837372       1.91959934       2.32122172      -0.00180336       0.00037491       0.00041203