399
Lattice="19.59262691714357 -0.0029401591670048664 0.00043227724696582155 -0.0029405439160256983 19.594541571232078 0.002722427805357169 0.0003459403246241731 0.002177382872289726 15.670877927394494" Properties=species:S:1:pos:R:3:energies:R:1:forces:R:3 energy=11.950588455474714 free_energy=11.950588455474714 stress="0.0001171194481305945 6.911213993734105e-05 -8.852337419247211e-05 6.911213993734105e-05 -0.0005187945477348006 -0.00015202058530742156 -8.852337419247211e-05 -0.00015202058530742156 0.0002674136510899104" pbc="T T T"
Au      -0.01860976       0.04238966       0.06315792      -1.22763061      -0.00091443      -0.00012622       0.00022255
Cu      -0.08480526       1.89958158       1.89425211       2.72875139      -0.00155674      -0.00119470       0.00013921
Cu       2.03349336      -0.04713174       1.95137202       3.21414792      -0.00004000       0.00016401      -0.00025778
Al       1.95862948       1.93374362       0.11683196      -3.32000408      -0.00063406      -0.00147385       0.00153944
Al      -0.07275592      -0.02274022       3.85588043      -2.46953687      -0.00136646      -0.00024814       0.00026249
Al      -0.08302352       1.97299159       5.79717095      -1.88164455      -0.00065330      -0.00049248      -0.00133837
Al       1.90249643      -0.00648887       5.82754653      -2.18653198      -0.00060175      -0.00121474      -0.00022874
Al       1.90179872       1.88676427       3.78536879      -2.81135005      -0.00062776      -0.00003801       0.00105471
Al      -0.07948771      -0.02084653       7.75424165      -2.47880750      -0.00059203      -0.00062584      -0.00001475
Au       0.00171750       1.92809265       9.76112386      -0.02160089       0.00056411       0.00116439      -0.00091222
Cu       1.87275444      -0.11085653       9.80746720       2.18738630      -0.00038436       0.00042626      -0.00063345
Au       1.94859758       1.90003207       7.87468588      -0.58815686       0.00036589      -0.00018452      -0.00072660
Cu       0.03043336      -0.11595284      11.74679141       2.01124071      -0.00048053      -0.00002770      -0.00039206
Cu       0.00466916       1.89107497      13.78540142       2.56706441       0.00020838      -0.00075144      -0.00005294
Au       1.87707125      -0.03779234      13.67465741      -0.28099572       0.00060282       0.00140668      -0.00079432
Au       1.89613036       1.87063129      11.69284727      -0.87926325      -0.00132478      -0.00067931       0.00101520
Cu       0.02384743       3.84199131       0.09336806       2.23468483      -0.00105392      -0.00040900       0.00121388
Cu      -0.09029531       5.78853802       1.85722861       2.76516697      -0.00114854      -0.00070978      -0.00029284
Cu       1.88060507       3.83961419       1.93505198       2.87980559      -0.00132316       0.00048358       0.00097763
Au       1.93472704       5.77518444       0.08024892      -0.36822439      -0.00095004      -0.00082122       0.00016425
Al      -0.05572845       3.86219385       3.79893926      -2.52198770      -0.00075912       0.00025071       0.00052224
Au       0.00472865       5.75979346       5.91465486       0.14351029       0.00098050       0.00141050       0.00018838
Au       2.01776127       3.77021661       5.80566515       0.34073109       0.00059060      -0.00123677      -0.00077213
Al       1.90356117       5.76377848       3.81827059      -2.30297965      -0.00029686       0.00039770      -0.00175708
Cu       0.11465168       3.87176975       7.82635189       3.32156379      -0.00077723       0.00125115      -0.00081224
Au       0.07262209       5.84566698       9.71502101       0.57321261      -0.00039637       0.00038174      -0.00024658
Cu       1.96100947       3.83137525       9.79872658       2.86175195       0.00179675      -0.00229231      -0.00098906
Al       1.98190668       5.84673040       7.81880695      -3.24423688       0.00100350      -0.00088183      -0.00155145
Au       0.01418072       3.90996877      11.77382630       0.30436874       0.00067563      -0.00252473       0.00141152
Au      -0.02944150       5.84969685      13.84370500       0.38019779      -0.00006854      -0.00024901       0.00045547
Au       1.91725106       3.83417084      13.78629163       0.17672111      -0.00025238       0.00033520       0.00027819
Al       1.98764531       5.86383433      11.81871336      -2.75263765      -0.00031407      -0.00163717       0.00070374
Al       0.01258222       7.82615566       0.06694864      -2.96483488      -0.00196920      -0.00053858      -0.00129860
Au       0.04680572       9.78888112       2.05959545      -0.06778073      -0.00073940       0.00125684       0.00056307
Al       1.94175032       7.83010113       1.94681796      -2.40292202      -0.00116966      -0.00099131       0.00187054
Cu       1.97866591       9.84580034       0.02444381       3.03043148       0.00093549       0.00108164       0.00223340
Al       0.05918526       7.76381036       3.95615098      -2.59923426       0.00082295      -0.00058697       0.00019378
Al       0.06147972       9.74840647       5.93717510      -2.71352668       0.00012019       0.00245037       0.00009804
Cu       1.95769781       7.79583707       5.91977379       3.12887176       0.00081238       0.00036422      -0.00134138
Cu       1.92705424       9.90190804       3.93587288       3.07636918       0.00341447       0.00022142      -0.00196365
Cu       0.01533304       7.73042495       7.77107998       3.54519630      -0.00017017       0.00129298      -0.00044564
Al       0.01606380       9.79369142       9.70363966      -2.18359865       0.00102465       0.00060470       0.00104223
Al       2.08330170       7.93328291       9.79374048      -1.81400383      -0.00306016      -0.00040515      -0.00080776
Al       2.02216057       9.78986469       7.89708168      -1.73544833      -0.00011364       0.00087255       0.00133555
Al       0.10838209       7.85938791      11.73614621      -2.13908360       0.00054112      -0.00021073      -0.00004279
Au       0.18767800       9.79585065      13.68461477       0.02181049      -0.00170933       0.00044410      -0.00144058
Cu       1.96204442       7.80440362      13.79972375       3.12144877       0.00161822       0.00000618       0.00294566
Cu       2.05187356       9.93988841      11.71857086       3.01708337       0.00106810       0.00103350       0.00004106
Al       0.10545149      11.85713352      -0.03085044      -3.03010754       0.00057825       0.00020068       0.00162802
Cu       0.08320193      13.78875675       2.02479620       2.86134098       0.00072780      -0.00044430       0.00018831
Au       1.88627443      11.80922098       1.99778072      -1.07918804      -0.00039022      -0.00076458      -0.00001707
Cu       1.99170653      13.84281286      -0.06361556       2.20783383       0.00069903       0.00025865      -0.00082012
Cu       0.01826703      11.80365477       3.98641550       2.75556931       0.00023299       0.00043338      -0.00155918
Au       0.02246028      13.81410655       6.07966533      -1.60916605       0.00080153       0.00005973      -0.00015910
Au       1.86785766      11.80549609       5.94907484       0.07757579      -0.00029292      -0.00233023       0.00037002
Au       1.85810016      13.81273897       3.96650570      -0.40932683      -0.00027843       0.00065047      -0.00101475
Cu       0.04006207      11.89257865       7.89367277       3.24599216       0.00098384      -0.00027760       0.00057280
Au      -0.04561051      13.78901235       9.70233049      -2.03111794      -0.00069337      -0.00290363       0.00070951
Au       2.02312870      11.87643734       9.82269277      -1.09360478       0.00447968       0.00076706      -0.00195607
Cu       1.92262008      13.82450233       7.92196980       2.66146085       0.00299334      -0.00107576      -0.00115563
Au       0.02142022      11.79497655      11.66038052      -0.43901187      -0.00142172       0.00037582      -0.00126928
Au       0.04075215      13.82536523      13.58940075      -0.68239012      -0.00083856       0.00249992       0.00108606
Au       2.02819697      11.90120137      13.59946421      -1.27601615       0.00340214       0.00099981       0.00225741
Cu       2.03881830      13.79226193      11.72040012       1.99485609       0.00209515      -0.00068827       0.00018752
Au       0.06438297      15.60638248      -0.00597359      -0.53288070      -0.00195109      -0.00121199      -0.00073542
Al      -0.00985469      17.67949687       1.98850026      -2.49567848       0.00024223      -0.00042142      -0.00006994
Cu       1.90324450      15.66042104       1.92168177       2.71090812      -0.00025519       0.00075336      -0.00005206
Au       1.96624428      17.56806554       0.05649057      -1.24344265       0.00083893       0.00002312       0.00000730
Au       0.00484292      15.78875954       3.97052847      -0.32269629      -0.00104803       0.00009192       0.00036014
Cu      -0.09854858      17.60057008       5.87783570       2.87509800      -0.00039621      -0.00058629       0.00071625
Cu       1.84946236      15.77026303       5.99959451       2.62267209       0.00056745      -0.00077910       0.00000936
Al       1.96595748      17.65260273       3.93207860      -2.63736009      -0.00119859      -0.00032263       0.00028703
Cu       0.01589390      15.72823166       7.91479820       2.23826838       0.00055110       0.00079079       0.00062809
Cu      -0.00168592      17.60315583       9.83164671       2.17255972       0.00022860      -0.00001378      -0.00044436
Au       1.93334409      15.71937476       9.84530319      -2.46850365       0.00249463       0.00163216      -0.00115422
Au       1.84484300      17.64626600       7.84290113      -1.57158315       0.00092242       0.00063700       0.00048442
Al      -0.06719426      15.70544081      11.67841992      -4.11584377      -0.00152503       0.00001654       0.00048335
Au      -0.00577869      17.57949409      13.65110249      -1.36779784      -0.00147648      -0.00120878      -0.00001963
Cu       1.98518767      15.65711192      13.65700662       1.87693816       0.00036617       0.00070700       0.00021059
Cu       1.90706991      17.62668887      11.69749732       2.01458121       0.00117161      -0.00021378      -0.00035866
Au       3.86765185      -0.05073935       0.07868264       0.11413102      -0.00138066       0.00076083       0.00098597
Cu       3.90763339       1.93259562       2.06523927       2.58999072      -0.00012579      -0.00034150      -0.00008319
Al       5.80375721      -0.03679173       2.00299691      -3.48026571       0.00071517       0.00054676       0.00051017
Al       5.79474038       1.94476018       0.03438064      -2.30307476       0.00058018       0.00074038       0.00108109
Au       3.92787259      -0.03308863       3.91688973      -1.43100955       0.00099902       0.00015288      -0.00008823
Cu       3.94467933       1.85718139       5.84096640       2.67171013       0.00004542      -0.00016957      -0.00107573
Cu       5.80975511      -0.01536542       5.78954477       1.88196261       0.00005501      -0.00068822      -0.00043113
Cu       5.81215023       1.88088648       3.95487448       1.75629118       0.00079686       0.00019113       0.00041600
Au       3.85836840      -0.03898169       7.86972024      -0.98183399       0.00043376       0.00025038      -0.00102631
Cu       3.82628554       1.92771531       9.79791019       2.86667785      -0.00169471      -0.00085316      -0.00136171
Al       5.83373935       0.00204015       9.84630693      -2.96844839      -0.00045845       0.00126335      -0.00066256
Au       5.87649484       1.84103471       7.76021969      -0.29017172      -0.00005815       0.00104145      -0.00162662
Al       3.87256155      -0.06046852      11.65534608      -3.30048672      -0.00011945       0.00090694       0.00032933
Al       3.92101975       1.90599176      13.70696122      -2.31294900      -0.00090353      -0.00139752       0.00101484
Au       5.81764407      -0.09905472      13.64230182       0.26791955       0.00140859       0.00133922      -0.00093005
Cu       5.86917304       1.95491135      11.78047240       3.13179167       0.00060225      -0.00072684       0.00038483
Al       3.94036940       3.85129773       0.07690162      -2.54850301      -0.00119859      -0.00194337       0.00082373
Al       3.91437101       5.77276581       2.02006105      -2.27520999      -0.00095661      -0.00156111       0.00025171
Cu       5.78661401       3.73884359       2.11851857       2.96116328       0.00161555       0.00004468       0.00012614
Au       5.79233672       5.89769850      -0.04737712      -0.21228040      -0.00039511      -0.00078898       0.00155521
Cu       3.89208533       3.71842197       3.87507879       2.40782954      -0.00092843      -0.00063699      -0.00084901
Au       3.83292783       5.87350795       5.80235371       0.47097390      -0.00026310       0.00053689       0.00155192
Al       5.78845724       3.86233325       5.82455773      -3.01944127      -0.00121030      -0.00078384       0.00066667
Al       5.81957409       5.87231094       3.89793260      -2.37044642       0.00006422       0.00161577      -0.00133680
Au       3.89627416       3.79966781       7.86313893       0.12053347       0.00008357       0.00340836       0.00219975
Au       3.87513267       5.84779727       9.79595340       1.02843415      -0.00199890       0.00089795      -0.00234227
Al       5.87364030       3.80674513       9.80196709      -2.36498268      -0.00240022      -0.00303707      -0.00008001
Al       5.83919659       5.87848429       7.84506040      -2.05343173      -0.00138409      -0.00016863      -0.00210990
Au       3.91248100       3.82625265      11.76019291      -0.30170613      -0.00014067      -0.00042710       0.00174657
Cu       3.87312742       5.86913282      13.77788850       2.79461687      -0.00101153       0.00163438      -0.00049879
Cu       5.79867171       3.95167663      13.67908839       3.27210341      -0.00075869      -0.00069874       0.00051305
Al       5.79146642       5.90247706      11.78619294      -2.58894857       0.00013047      -0.00153404       0.00321443
Au       3.83779736       7.86918383      -0.05660029      -0.77680790      -0.00055569      -0.00066421       0.00198056
Cu       3.81359148       9.86504915       1.91752627       2.79724644       0.00008060      -0.00044549       0.00012758
Au       5.80500597       7.90204536       1.96599424       0.53488681       0.00079038      -0.00072181       0.00001054
Au       5.82087723       9.82921682      -0.01061270      -0.32383737       0.00018783      -0.00229469       0.00205449
Au       3.75595989       7.96167156       3.91864711       0.48503840      -0.00061189       0.00315013      -0.00017800
Al       3.83957225       9.83903492       5.91899039      -2.27905000       0.00091940      -0.00167854      -0.00018452
Au       5.81557319       7.86998844       5.86657097       0.87460079       0.00021739      -0.00145695       0.00152070
Al       5.86762126       9.83208839       3.90979933      -2.72063393      -0.00076466       0.00074783      -0.00153483
Cu       3.89910313       7.76499864       7.74581704       3.55385035       0.00055047      -0.00125853      -0.00192131
Au       5.64585597       8.01999788       9.83548368       0.37960521       0.00326672       0.00132805      -0.00337307
Al       5.74107166       9.87607363       7.92092078      -2.11746671       0.00153239      -0.00383488       0.00296657
Au       3.86593196       7.89912729      11.93037041      -0.38777342      -0.00059043       0.00107092       0.00077075
Al       3.86474586       9.88574314      13.70245177      -3.63779895      -0.00264490      -0.00324591      -0.00023072
Cu       5.84963022       7.87796201      13.74725012       2.76104824      -0.00115445      -0.00109940      -0.00008834
Cu       5.77865198       9.88622194      11.75027098       2.30118246       0.00115727       0.00031333       0.00063150
Au       3.80230499      11.85269229       0.01834276      -0.60239863      -0.00231527       0.00072283       0.00277102
Al       3.85162770      13.85832963       1.99029757      -3.26540028       0.00040743       0.00063502      -0.00015115
Au       5.84401841      11.77833886       1.96278929       0.50033714       0.00115833       0.00246467       0.00018455
Au       5.76991158      13.84528807       0.00693812      -0.28717342       0.00156945       0.00122217      -0.00042985
Au       3.84622459      11.75832573       3.92172289       0.36207440      -0.00186172      -0.00162258      -0.00058624
Al       3.83132737      13.78086659       5.91498715      -2.21633451       0.00000610       0.00078136       0.00068338
Au       5.93213277      11.83200482       5.86745834       0.75813492       0.00335282      -0.00229924      -0.00119657
Au       5.91588736      13.75074673       3.90718422       0.71755274       0.00137746       0.00094501      -0.00166038
Al       3.90649273      11.86059706       7.92692366      -1.88758315      -0.00368593       0.00174144      -0.00131722
Cu       3.83639858      13.84220343       9.85703026       2.21192596      -0.00060872      -0.00260982       0.00023190
Cu       5.76786924      11.77047358       9.94740195       2.48463913      -0.00148581       0.00018833       0.00218269
Al       5.80900464      13.76380991       7.95163520      -2.40563587       0.00025375      -0.00060829      -0.00084777
Cu       3.89821980      11.89591007      11.69296445       1.91857565      -0.00284867       0.00116858       0.00127768
Cu       3.80182871      13.83278567      13.66897605       1.90399364      -0.00150593      -0.00086549       0.00099123
Au       5.76391153      11.92087193      13.65235392      -0.57730209       0.00119869       0.00212041       0.00062054
Au       5.70895524      13.83058574      11.67960103      -1.72520172      -0.00105947       0.00130975       0.00032730
Cu       3.79299715      15.68548057       0.00053705       2.12762853       0.00078998       0.00000668      -0.00037404
Cu       3.86604501      17.54839535       1.94480403       2.42619492       0.00022243       0.00144589      -0.00115073
Cu       5.83113130      15.78080320       1.99219581       2.88785097       0.00028404       0.00092084      -0.00050623
Au       5.77803934      17.51792463       0.04950500      -0.55460954       0.00115526      -0.00156746       0.00054392
Al       3.86347581      15.77654906       3.96339206      -2.68319197       0.00017446      -0.00052539      -0.00001576
Cu       3.91758393      17.69287423       5.93270653       2.90523332       0.00001465       0.00007055       0.00046090
Al       5.82960964      15.69375076       5.84686064      -2.31896968       0.00072745       0.00048799      -0.00030318
Cu       5.78883041      17.68968262       3.91804903       2.60815778       0.00051260       0.00061238       0.00041878
Au       3.82586798      15.72228033       7.86792349      -1.01453771      -0.00045139       0.00047084      -0.00051444
Cu       3.82253126      17.58226961       9.81401825       2.19556130       0.00018290      -0.00031924       0.00099066
Cu       5.69447574      15.76719903       9.85981517       2.23461280       0.00074282      -0.00018074       0.00016920
Au       5.80602695      17.63875687       7.84953971      -0.26954080       0.00022589       0.00110874       0.00023747
Cu       3.79975953      15.71853175      11.69454395       1.54877430      -0.00051788       0.00054216      -0.00096521
Au       3.81112285      17.53029847      13.62197578      -1.13888573       0.00015903      -0.00138051      -0.00007307
Al       5.77831748      15.64396200      13.66747422      -3.81418716       0.00020592      -0.00041980       0.00100229
Cu       5.78910459      17.51256670      11.71951987       2.49073876      -0.00028020       0.00105107       0.00154881
Au       7.82326663      -0.03962637       0.00466161       0.16624542       0.00071254       0.00059109      -0.00061106
Au       7.76427023       1.87878664       1.99035846      -0.44622296       0.00107595       0.00096435       0.00070061
Cu       9.77162439       0.04582714       1.94202138       2.33173212       0.00150438       0.00048139       0.00076345
Cu       9.78663783       1.85679284       0.05984496       2.58143301       0.00089926      -0.00012337      -0.00081296
Cu       7.75038693       0.03053029       3.92267199       2.23311517       0.00150378       0.00078367       0.00049376
Cu       7.75764531       1.87149618       5.78068285       2.51283102      -0.00002092       0.00118768      -0.00085120
Al       9.78913587      -0.04629444       5.81986311      -2.56569971       0.00043772       0.00062436      -0.00018583
Au       9.76590884       1.87169233       3.85077980      -0.66316486       0.00036456      -0.00014118       0.00012654
Al       7.83298814      -0.05910151       7.84769977      -2.28834460       0.00006969      -0.00089754       0.00011561
Cu       7.84338407       1.94197298       9.79586956       3.45791335      -0.00106878       0.00094324      -0.00014598
Al       9.80679407      -0.04827620       9.82526821      -1.75280189       0.00048333       0.00096635      -0.00019403
Au       9.77025079       1.93167005       7.79795103       0.77221401      -0.00016322      -0.00002625       0.00052661
Au       7.80578925       0.03994364      11.72635286       0.06215844      -0.00085168       0.00101011       0.00042208
Au       7.74972795       1.99260887      13.73277252       0.02023108      -0.00063940      -0.00047937      -0.00080400
Au       9.85171383       0.04118373      13.76411957       0.10143808       0.00031305       0.00015389      -0.00033725
Au       9.84373336       2.03206578      11.76966191       0.72995299      -0.00043134      -0.00016712      -0.00074829
Al       7.72100323       3.91827808       0.07102376      -2.36873841       0.00174283      -0.00134971       0.00186453
Al       7.75272344       5.92492627       1.97876711      -2.51640125       0.00076481      -0.00191004       0.00005142
Al       9.75687607       3.90055880       1.90913141      -2.25393724       0.00090224       0.00096877       0.00018436
Au       9.75262095       6.07412921       0.06416075       0.64189701       0.00128153       0.00045023       0.00311300
Au       7.74025564       3.83776491       3.92028063       0.02273798      -0.00116166       0.00073310      -0.00037623
Au       7.84270204       5.97361496       5.85825297       0.32532943       0.00045441      -0.00003659      -0.00086475
Au       9.79732127       3.90918579       5.80637489      -0.29041501       0.00146966      -0.00045108       0.00006960
Au       9.78367755       5.96212188       3.90031170      -0.49048520       0.00075406      -0.00008251      -0.00064356
Au       7.81136058       3.84631098       7.77884497       0.74475800       0.00070039      -0.00070694       0.00099766
Al       7.78769256       5.90615902       9.78196515      -1.28290943       0.00025478      -0.00081587       0.00311224
Al       9.81554815       3.93436665       9.75968025      -2.25661636      -0.00204566       0.00137510      -0.00102096
Au       9.87166217       5.95658887       7.74701946       0.63052069       0.00003542      -0.00110575      -0.00028065
Al       7.77257659       3.91391176      11.74760938      -2.35068131      -0.00131178       0.00044129       0.00051693
Au       7.76155144       5.93981795      13.73115578       0.18270164      -0.00050249      -0.00077484      -0.00062741
Au       9.78545021       3.92159407      13.84301052       0.53146001       0.00176114      -0.00094228      -0.00050208
Au       9.81801928       5.84148465      11.77450900       1.37456116      -0.00101463       0.00063598       0.00039363
Cu       7.72050684       7.87631548      -0.01988750       2.97737364      -0.00133040       0.00082454      -0.00208799
Al       7.84417215       9.83041349       1.99566291      -3.23506375       0.00010481      -0.00013761      -0.00102880
Cu       9.78371317       7.88268705       1.99468719       2.94412166       0.00056084      -0.00096213      -0.00128890
Au       9.72723134       9.75351802       0.04174068      -0.83922531      -0.00016362       0.00096334      -0.00034632
Cu       7.88355148       7.86571161       3.95397016       3.10309072       0.00012432       0.00136452       0.00089452
Au       7.84679353       9.77370692       5.85636614       0.39373479      -0.00143944       0.00026794       0.00044208
Cu       9.83527057       7.84570435       5.80400427       2.99102703       0.00010424      -0.00072570       0.00027613
Au       9.79041787       9.77853817       3.91853810      -0.87857522       0.00021450      -0.00143794      -0.00057640
Al       7.78790680       7.93460158       7.94002372      -1.86067971      -0.00309534       0.00203742      -0.00096026
Cu       7.72000081       9.92810984       9.91541699       3.05430876       0.00105843      -0.00403500      -0.00030683
Al       9.85738542       7.88521685       9.81204731      -1.76715222      -0.00037484      -0.00077623      -0.00033781
Al       9.84392887       9.74926513       7.84936175      -2.21201459       0.00016684      -0.00146668       0.00124981
Au       7.71031451       7.94857483      11.69744524       0.12154803      -0.00328049       0.00274050       0.00104502
Au       7.73619155       9.83625438      13.68837410      -0.54605832      -0.00012790      -0.00262831      -0.00108192
Al       9.77698223       7.88569704      13.67788177      -2.63235717       0.00016046       0.00009140      -0.00007292
Au       9.81404586       9.90066283      11.72860171       0.54079744      -0.00090745       0.00113766       0.00109466
Au       7.86493659      11.86326309      -0.05269379      -0.82784660      -0.00061900      -0.00108770      -0.00064952
Al       7.86712585      13.72028225       1.96081320      -2.87654479      -0.00007176       0.00031824       0.00044863
Cu       9.82851378      11.78015080       1.99220135       2.67482113       0.00102683      -0.00000077      -0.00021169
Cu       9.76205808      13.68622776      -0.05864916       2.60789182       0.00068486       0.00036462      -0.00027511
Cu       7.87131127      11.81263020       3.95295283       3.05911333      -0.00075229       0.00024682       0.00012252
Cu       7.86318402      13.66800223       5.88859257       3.30980680       0.00048397      -0.00019398      -0.00020558
Al       9.80533551      11.73662549       5.92004819      -2.72688883       0.00035816       0.00194329      -0.00078679
Au       9.81965756      13.65673516       3.91340013      -0.03160484       0.00066538      -0.00073035       0.00035595
Au       7.76909258      11.76512637       7.95075991       0.47343024      -0.00276642       0.00035943       0.00088033
Al       7.76089982      13.80594764       9.85283190      -2.32741858      -0.00134275       0.00009399      -0.00096756
Au       9.85992854      11.79612983       9.76843472       0.50871036       0.00053590      -0.00138013       0.00224783
Au       9.83208736      13.78100372       7.82709156       0.48121605      -0.00024606       0.00062741      -0.00081114
Al       7.78654843      11.86048907      11.78487151      -3.06562108      -0.00240401       0.00140625       0.00006025
Cu       7.83571202      13.77472368      13.75725183       2.52104406       0.00028510      -0.00049548      -0.00027148
Cu       9.76184458      11.74070488      13.78781369       3.06946381      -0.00200295       0.00035865       0.00050247
Al       9.77745483      13.73337513      11.82047448      -2.04242823      -0.00158920      -0.00077078       0.00077034
Au       7.86433924      15.63817610       0.01838311      -0.19375116       0.00045550       0.00018601       0.00005475
Au       7.80705858      17.68037756       2.08803789      -0.54630565       0.00011092       0.00011989      -0.00057534
Al       9.84309898      15.67614307       2.00770145      -2.23310127       0.00015842       0.00017977       0.00039242
Al       9.78314281      17.63723024       0.02904039      -2.52341256       0.00015294       0.00006046       0.00073777
Al       7.83477563      15.68508417       3.92289306      -2.34008324       0.00092743       0.00047389      -0.00085788
Au       7.74775351      17.72588445       5.72721068       0.09080479       0.00067603       0.00034288       0.00118664
Al       9.81785428      15.72758164       5.78281604      -2.16111651       0.00056791       0.00042316       0.00113442
Cu       9.79718949      17.77093270       3.81262460       3.11369311       0.00112924       0.00032281       0.00070206
Au       7.77884346      15.67319886       7.77796069       1.07264760      -0.00041516      -0.00009314       0.00064891
Au       7.73899031      17.47315548       9.92750269       0.24606243       0.00075861       0.00107664       0.00019589
Al       9.83952535      15.61850710       9.85245853      -1.95619291      -0.00045927       0.00064652       0.00058073
Al       9.79978529      17.55695376       7.83092707      -1.54860522       0.00144105      -0.00002621       0.00033761
Cu       7.73534255      15.61918272      11.83565516       2.95605697      -0.00007287      -0.00031914      -0.00065765
Au       7.80116757      17.54944996      13.62903383      -0.22661406       0.00089451       0.00032201      -0.00024666
Cu       9.68023024      15.61320863      13.75430909       3.06551939       0.00014444       0.00000393      -0.00013588
Al       9.85912012      17.54337896      11.82322836      -2.06239737       0.00020425       0.00107013       0.00041156
Cu      11.71733972       0.12199605       0.04285445       2.53680701       0.00084510       0.00019784      -0.00008832
Cu      11.77452500       1.90460310       1.91373841       2.32930541       0.00082217       0.00009819       0.00034291