399
Lattice="19.59262691714357 -0.0029401591670048664 0.00043227724696582155 -0.0029405439160256983 19.594541571232078 0.002722427805357169 0.0003459403246241731 0.002177382872289726 15.670877927394494" Properties=species:S:1:pos:R:3:energies:R:1:forces:R:3 energy=11.878805740207628 free_energy=11.878805740207628 stress="0.0007433219095076142 0.00012118176219581668 -5.266243083124055e-05 0.00012118176219581668 0.00010217338565502236 -0.0001482087609616622 -5.266243083124055e-05 -0.0001482087609616622 0.0010329535549593837" pbc="T T T"
Au      -0.02088138       0.04321285       0.06229208      -1.25373715      -0.00016401      -0.00063725      -0.00000304
Cu      -0.07843566       1.89520758       1.89741496       2.71999367      -0.00037023       0.00201131      -0.00093321
Cu       2.01074409      -0.04277535       1.95236970       3.32802609      -0.00056407      -0.00005352       0.00071760
Al       1.98257627       1.91771020       0.13073972      -3.31150858      -0.00019517       0.00350969      -0.00176489
Al      -0.06960163      -0.02256599       3.85827543      -2.48193717       0.00243425      -0.00193574      -0.00093582
Al      -0.06599837       1.96658250       5.78769567      -1.87351130      -0.00017837       0.00066281       0.00071406
Al       1.95341349      -0.00505199       5.78938865      -2.20051849       0.00042482      -0.00074937      -0.00032795
Al       1.93501487       1.87735010       3.77619486      -2.83258554      -0.00251640      -0.00045181      -0.00172925
Al      -0.06166717      -0.01877447       7.74004313      -2.48077412       0.00067276      -0.00089673       0.00027734
Au       0.01590675       1.92509448       9.76118265      -0.03819384       0.00036425       0.00003157      -0.00000596
Cu       1.87913538      -0.11051952       9.80747946       2.17973980       0.00094507      -0.00135890      -0.00096502
Au       1.95532282       1.89668842       7.86229322      -0.56384960      -0.00174990       0.00138730      -0.00073609
Cu       0.04627442      -0.11362972      11.76045445       1.99137742       0.00112165      -0.00052001      -0.00016304
Cu       0.01281381       1.88249075      13.78760319       2.55297010       0.00021919       0.00061072       0.00102521
Au       1.90918080      -0.03497850      13.70723179      -0.21980461       0.00114556       0.00022438      -0.00012963
Au       1.90273819       1.86367336      11.70588261      -0.88969039       0.00035943      -0.00060800      -0.00034511
Cu       0.03308423       3.83095006       0.09606665       2.21822155       0.00007372       0.00072802       0.00001359
Cu      -0.08501050       5.78487219       1.85598721       2.75797145      -0.00101906      -0.00012226       0.00148109
Cu       1.89021937       3.84106149       1.93524979       2.87233808      -0.00026224       0.00113644      -0.00075050
Au       1.93749134       5.77761759       0.07674143      -0.35547971      -0.00267292       0.00158042       0.00104012
Al      -0.04254213       3.85635379       3.79760114      -2.52267366      -0.00175569       0.00265477       0.00171833
Au       0.00891618       5.75766547       5.91418454       0.14220152       0.00032733      -0.00017339       0.00007773
Au       2.03140869       3.77207861       5.79921248       0.33892870      -0.00155847       0.00147746      -0.00002160
Al       1.91047516       5.76981927       3.82285076      -2.29668185      -0.00082305       0.00079377       0.00069426
Cu       0.12156506       3.86546657       7.81955157       3.31456032       0.00045198       0.00133205      -0.00109379
Au       0.06120410       5.82572962       9.71408582       0.59114569       0.00048776      -0.00038372      -0.00062842
Cu       1.96643066       3.82565471       9.80122681       2.84855343      -0.00133999       0.00119456      -0.00045157
Al       1.98356983       5.85139823       7.82316481      -3.21754934      -0.00082141       0.00118377      -0.00111135
Au       0.01897750       3.90115948      11.77999053       0.30226201      -0.00078984       0.00113892      -0.00210904
Au      -0.02829803       5.84401510      13.84678105       0.39102326      -0.00031588       0.00025509      -0.00104625
Au       1.92236981       3.82648734      13.79469121       0.17022836      -0.00022128      -0.00003827       0.00124772
Al       1.98683983       5.85965138      11.82179312      -2.75971511      -0.00041568       0.00023074       0.00059351
Al       0.01283718       7.82537440       0.06633122      -2.95437754      -0.00189221       0.00145190      -0.00095790
Au       0.04593601       9.79019341       2.05960595      -0.05897826      -0.00061064      -0.00068892      -0.00034738
Al       1.94210942       7.83322548       1.94765305      -2.39887435      -0.00057357       0.00150493       0.00076799
Cu       1.97946996       9.84627900       0.01796590       3.02513652       0.00015677      -0.00028263      -0.00072101
Al       0.05909855       7.76306739       3.95624782      -2.58838347       0.00019398      -0.00008498       0.00021015
Al       0.05536074       9.75000606       5.93073712      -2.70959999      -0.00172617       0.00114973       0.00208675
Cu       1.95848886       7.80522476       5.93410971       3.14366756       0.00063251      -0.00008235      -0.00150440
Cu       1.92749644       9.90346370       3.93992470       3.07839026      -0.00222432      -0.00045211      -0.00073859
Cu       0.00320210       7.72664378       7.76802153       3.56004448      -0.00159709      -0.00000590       0.00097427
Al       0.01716502       9.79898358       9.71263300      -2.23196134      -0.00172954       0.00075337       0.00023840
Al       2.01991604       7.89858249       9.78719443      -2.21047687      -0.00173241      -0.00090836       0.00103342
Al       1.99801826       9.78960912       7.89860888      -2.12285804      -0.00295004       0.00108407      -0.00230560
Al       0.09553680       7.85092168      11.74397516      -2.15567400      -0.00208085      -0.00014690      -0.00012003
Au       0.17694621       9.79691463      13.68833153       0.01373757      -0.00122007       0.00036312       0.00047016
Cu       1.96535507       7.81083906      13.78731891       3.08009567       0.00055174       0.00024359      -0.00017758
Cu       2.02353674       9.93019157      11.72348955       2.94004334      -0.00165893       0.00069146       0.00154432
Al       0.10568790      11.85840715      -0.02891793      -3.02818931      -0.00138070       0.00178916       0.00044181
Cu       0.08844183      13.79263492       2.02305651       2.85436954       0.00212727       0.00123122      -0.00114905
Au       1.88896826      11.80670373       1.99853850      -1.07661432      -0.00163037      -0.00093053      -0.00112274
Cu       1.99530077      13.84202129      -0.06082410       2.20640753      -0.00016340      -0.00082042      -0.00237212
Cu       0.01832087      11.80617433       3.98412230       2.75768707      -0.00004195       0.00043401      -0.00035028
Au       0.02632168      13.82020409       6.07750258      -1.60080264       0.00085630      -0.00006827       0.00127108
Au       1.86502458      11.80547267       5.94891835       0.07178792       0.00096257       0.00038648       0.00004835
Au       1.86109033      13.81248306       3.96478215      -0.41234955      -0.00086563      -0.00216137       0.00057124
Cu       0.03658459      11.89837224       7.89270508       3.24176637      -0.00031254       0.00046987      -0.00182854
Au      -0.04334390      13.79662366       9.70107963      -2.02758044      -0.00028503      -0.00063835       0.00066457
Au       2.02643570      11.87336705       9.81917367      -1.42787422      -0.00057936      -0.00077137       0.00052144
Cu       1.92691286      13.82757991       7.91878165       2.65188185       0.00022958      -0.00149318       0.00047431
Au       0.01675066      11.80562767      11.66310062      -0.45055186      -0.00061903      -0.00010423       0.00046595
Au       0.04563525      13.83319005      13.59365444      -0.67846884       0.00007254      -0.00063355      -0.00086870
Au       2.02564152      11.90017728      13.60001085      -1.27394807      -0.00122273      -0.00021988       0.00056871
Cu       2.04430627      13.79481517      11.72260739       1.97770657      -0.00089141       0.00090225      -0.00004506
Au       0.07924254      15.61902303      -0.00442121      -0.54034761       0.00164209       0.00021478       0.00055100
Al      -0.01076790      17.68185877       1.98779195      -2.50423912       0.00194061      -0.00132421       0.00141697
Cu       1.91263328      15.66381669       1.92288658       2.71195723       0.00002767      -0.00006086      -0.00065407
Au       1.99104931      17.58924357       0.07358641      -1.25582836      -0.00043292      -0.00193155      -0.00083110
Au       0.01763214      15.79817347       3.96734368      -0.33916876       0.00009753      -0.00127137       0.00176216
Cu      -0.08547356      17.60854880       5.87116936       2.86566230       0.00261136      -0.00094151      -0.00122643
Cu       1.85733498      15.77707999       5.98906547       2.62812602      -0.00001743      -0.00124709       0.00066329
Al       1.99551642      17.66974605       3.91424102      -2.65115177       0.00052780       0.00089925       0.00078517
Cu       0.02488571      15.73516510       7.91251099       2.23913324       0.00059257      -0.00111007      -0.00074482
Cu       0.00996233      17.60837731       9.83046668       2.16480846       0.00187622      -0.00041127      -0.00022310
Au       1.94164724      15.72323640       9.84403668      -2.46048890      -0.00097340      -0.00195051       0.00005195
Au       1.85401239      17.65109044       7.83233796      -1.55556172       0.00157670      -0.00084842       0.00064093
Al      -0.05831398      15.71292545      11.68049768      -4.10694313       0.00076315      -0.00080960       0.00036916
Au       0.01053027      17.58862011      13.65845096      -1.36892365       0.00131550       0.00012335       0.00011829
Cu       1.99422388      15.66315359      13.66523612       1.87244720      -0.00111535      -0.00033802       0.00057119
Cu       1.91780885      17.62965604      11.70689418       2.00178037      -0.00008936       0.00058501      -0.00089567
Au       3.93828303      -0.05155577       0.19331268      -0.23096595       0.00295463      -0.00218110       0.00131619
Cu       3.94159363       1.94857870       2.06255346       2.48147978       0.00395779      -0.00147768       0.00008605
Al       5.79402597       1.92010354       0.07175040      -2.28445228      -0.00264745       0.00166679       0.00230615
Au       4.01303692      -0.03211308       3.78740219      -1.87761990       0.00268398      -0.00149659      -0.00313477
Cu       3.95254539       1.84542300       5.80726391       2.61393438      -0.00188291       0.00023799       0.00141334
Cu       5.78696064      -0.01439589       5.78667139       1.84443661       0.00054919      -0.00117482      -0.00022249
Cu       5.80394076       1.88219095       3.93464632       1.60430041      -0.00038815      -0.00102339      -0.00337293
Au       3.86105267      -0.03932566       7.86709404      -0.96342136      -0.00024302       0.00016084       0.00003019
Cu       3.82174669       1.92477016       9.79910203       2.85368966      -0.00061152       0.00162787       0.00012487
Al       5.83089822       0.00412605       9.84606091      -2.97090178      -0.00019273       0.00050012       0.00003187
Au       5.86983276       1.84298328       7.75497321      -0.28255211      -0.00213474       0.00042613       0.00316886
Al       3.87399807      -0.06328842      11.65950775      -3.30939468       0.00067606       0.00227490      -0.00100589
Al       3.93045039       1.89492689      13.73444466      -2.30008461      -0.00033524       0.00021438       0.00215758
Au       5.80854588      -0.10153987      13.64812201       0.26536103      -0.00268329      -0.00271982      -0.00036101
Cu       5.86211888       1.95204944      11.78318970       3.13948501      -0.00157382       0.00114746      -0.00033517
Al       3.94651030       3.85553314       0.07871527      -2.56755204       0.00126126      -0.00098142       0.00204858
Al       3.91143629       5.78748307       2.01686231      -2.28727124      -0.00173500      -0.00120779       0.00087420
Cu       5.78972262       3.77565485       2.11323464       3.00308632      -0.00169286       0.00072194      -0.00070392
Au       5.79162681       5.90158729      -0.04690073      -0.22249322      -0.00108151       0.00185324      -0.00019383
Cu       3.89555135       3.73771054       3.86867352       2.42943635       0.00046275       0.00101752      -0.00454690
Au       3.83111185       5.89810910       5.82653597       0.52167159      -0.00179641       0.00051107       0.00165495
Al       5.77769691       3.86292934       5.81877189      -3.02350792       0.00090194       0.00200952      -0.00126114
Al       5.81194815       5.88458221       3.90569340      -2.38498096      -0.00093070       0.00062303       0.00082092
Au       3.89447620       3.80000881       7.86358536       0.14714555       0.00126146       0.00151848       0.00079958
Au       3.87365277       5.85227565       9.79967707       1.00014073      -0.00112380       0.00104776      -0.00007391
Al       5.86834242       3.80562888       9.80351617      -2.36363254       0.00093279       0.00062982       0.00063369
Al       5.83672998       5.87592441       7.84255473      -2.05417555      -0.00020443      -0.00073719       0.00027416
Au       3.91249945       3.82090512      11.76953300      -0.30944378      -0.00097709       0.00039899      -0.00052768
Cu       3.87388101       5.87986527      13.77283975       2.76640269      -0.00158961       0.00016382      -0.00219958
Cu       5.79651927       3.94591785      13.68987977       3.27172577      -0.00065435      -0.00007550       0.00118542
Al       5.79302675       5.89687451      11.79408351      -2.60561092       0.00005050       0.00066159       0.00136401
Au       3.83510248       7.87518322      -0.06201642      -0.78481161       0.00047533       0.00007318      -0.00164943
Cu       3.81321355       9.86426636       1.91775315       2.80520714       0.00028672       0.00009463      -0.00056301
Au       5.80141716       7.90631168       1.96532311       0.53965884       0.00074844      -0.00102801      -0.00018394
Au       5.81846586       9.82685951      -0.01766380      -0.32600522       0.00036305      -0.00046234       0.00015251
Au       3.75477625       7.97040257       3.92691901       0.48402779      -0.00034255       0.00080983      -0.00193192
Al       3.84106903       9.83896871       5.94318178      -2.31206299      -0.00111055       0.00095530      -0.00150180
Au       5.81349811       7.87413627       5.88383649       0.92200618       0.00075767       0.00108789      -0.00009601
Al       5.86746883       9.82884316       3.91621660      -2.71939525       0.00033314       0.00017002      -0.00158008
Cu       3.90417473       7.81965881       7.81869230       3.45103599       0.00036903       0.00066850       0.00147455
Cu       3.90762960       9.91661814       9.98374687       2.42163055      -0.00116665      -0.00044443      -0.00033875
Au       5.71930946       7.98348299       9.82486014      -0.03212941      -0.00065639      -0.00170781       0.00098072
Al       5.77644279       9.87810847       7.91368924      -2.53687524      -0.00000667      -0.00102824      -0.00002523
Au       3.86332076       7.91602390      11.88239592      -0.65948478      -0.00064776      -0.00080303       0.00063035
Al       3.86653134       9.88351638      13.67511872      -3.72020402      -0.00052176      -0.00073836       0.00057995
Cu       5.84630647       7.87646965      13.73767263       2.72082195       0.00077242       0.00008661      -0.00091246
Cu       5.79856037       9.87505892      11.74724498       2.19751428      -0.00073651      -0.00136413       0.00125035
Au       3.80228229      11.84511855       0.01411214      -0.61348021      -0.00244193      -0.00007455      -0.00036904
Al       3.85261300      13.85003149       1.98991966      -3.27607730       0.00120897      -0.00296331       0.00073474
Au       5.84310734      11.77222545       1.96309010       0.49490044      -0.00068964      -0.00150113      -0.00029745
Au       5.77159316      13.83538217       0.00403850      -0.30824173      -0.00035654      -0.00029128       0.00026058
Au       3.84796603      11.75264589       3.92711286       0.35620150      -0.00062794      -0.00160193      -0.00007373
Al       3.83422948      13.77948639       5.91125982      -2.21269641      -0.00001683      -0.00124188       0.00221761
Au       5.93974181      11.83302227       5.86539447       0.75901945      -0.00063895      -0.00037838       0.00144285
Au       5.92223535      13.74745547       3.90430046       0.70208922      -0.00018006       0.00086642      -0.00072456
Al       3.90956979      11.85206108       7.91538734      -2.23960592      -0.00134466       0.00264893       0.00001084
Cu       3.83931903      13.83507463       9.85592512       2.19296455      -0.00113038      -0.00094909       0.00049230
Cu       5.75527130      11.75891297       9.94499490       2.36211581       0.00050484      -0.00091160      -0.00006238
Al       5.80493149      13.76190169       7.94938847      -2.40764251      -0.00119459      -0.00110097       0.00044064
Cu       3.89669776      11.88422229      11.69230306       1.83642519      -0.00151912      -0.00020726       0.00110472
Cu       3.80264108      13.83010841      13.67243387       1.90698474       0.00017918      -0.00025945      -0.00049703
Au       5.76605582      11.91638578      13.64936014      -0.57031301       0.00044620      -0.00070235       0.00094982
Au       5.70264902      13.83280333      11.68607410      -1.71846472       0.00120301      -0.00061696      -0.00083964
Cu       3.80023588      15.68412276       0.00614462       2.11958335       0.00029879       0.00016893       0.00090120
Cu       3.89022670      17.53082654       1.95118216       2.33987380      -0.00021062       0.00257875       0.00363865
Cu       5.83570984      15.75604785       1.97906540       2.91798545       0.00134791      -0.00369266       0.00167596
Au       5.78294796      17.53496670       0.07608680      -0.74803887      -0.00188699       0.00576612      -0.00117774
Al       3.87443078      15.77065961       3.96250445      -2.68168182       0.00008944       0.00056222      -0.00301343
Cu       3.93794455      17.70846166       5.90272188       2.85388833      -0.00035368       0.00025917      -0.00194426
Al       5.83067827      15.69849465       5.83752659      -2.30173886       0.00147984       0.00008708       0.00017143
Cu       5.79473183      17.71365379       3.86717514       2.39144481      -0.00281782       0.00527432      -0.00383847
Au       3.82657135      15.72581331       7.85932836      -0.98263312       0.00150447      -0.00183937       0.00107038
Cu       3.82426774      17.58379854       9.81411135       2.20085123       0.00044954       0.00038230      -0.00042623
Cu       5.68918932      15.76619213       9.86116614       2.22887598      -0.00020033      -0.00071748       0.00003123
Au       5.80247794      17.63799669       7.85007380      -0.26087015      -0.00095827      -0.00218630       0.00283137
Cu       3.80085852      15.72447358      11.70246110       1.53738265      -0.00056943      -0.00105690      -0.00130623
Au       3.82045042      17.53583630      13.64351472      -1.11759593       0.00264741       0.00160210       0.00247468
Al       5.77757728      15.65033312      13.68181129      -3.81598454      -0.00180804      -0.00013951       0.00004755
Cu       5.78655636      17.51196460      11.72299404       2.48566282      -0.00006377       0.00041258       0.00089449
Au       7.79316996      -0.03482249       0.01211336       0.01295228      -0.00088196      -0.00368866       0.00647763
Au       7.68869862       1.81454303       2.01485860      -0.74648703       0.00104407      -0.00344391       0.00227399
Cu       9.76748566       0.04940067       1.92998977       2.34314897      -0.00225184       0.00136191       0.00148393
Cu       9.76515810       1.85037580       0.06669917       2.57604892       0.00013437       0.00071579       0.00087693
Cu       7.69317007       0.02543942       3.92599627       2.03549765      -0.00090940       0.00026271      -0.00249912
Cu       7.74331174       1.86976032       5.77714863       2.51950624       0.00190214       0.00248889      -0.00087084
Al       9.77274881      -0.05046725       5.81425370      -2.55545850      -0.00032410       0.00181630      -0.00132307
Au       9.73702056       1.85393970       3.83886152      -0.66492016      -0.00612184       0.00055389      -0.00327267
Al       7.82531109      -0.05862316       7.84698383      -2.28312982       0.00034135       0.00029520      -0.00027985
Cu       7.83858108       1.94117149       9.79614258       3.45600274      -0.00078486       0.00226997      -0.00199460
Al       9.80095460      -0.04899563       9.82535899      -1.75191895      -0.00191035       0.00011292       0.00148355
Au       9.76478563       1.92820563       7.79515288       0.77762061       0.00002560      -0.00084190      -0.00058164
Au       7.79888992       0.03988503      11.72939525       0.05993441      -0.00138569      -0.00164850       0.00001375
Au       7.73539928       1.99006309      13.73770364       0.00430735       0.00251352       0.00147096      -0.00013119
Au       9.83705285       0.04375239      13.77470538       0.08635560      -0.00059869       0.00044230      -0.00026899
Au       9.83728279       2.02940329      11.77364221       0.73158527       0.00220272      -0.00134858       0.00032060
Al       7.70981553       3.89680895       0.09051084      -2.37998733      -0.00058747       0.00073555       0.00038729
Al       7.74867486       5.92827656       1.98128119      -2.53181247       0.00072908       0.00310647       0.00034953
Al       9.73172562       3.87031132       1.91108762      -2.26185308       0.00191535       0.00203880      -0.00117914
Au       9.74902891       6.06321895       0.07398638       0.64918201       0.00218344       0.00114682      -0.00234697
Au       7.72878693       3.82723480       3.90698703      -0.00485742       0.00335121       0.00090839       0.00377966
Au       7.83963340       5.96505686       5.84988893       0.33194902      -0.00186367       0.00006400       0.00041226
Au       9.78793979       3.89721187       5.79563107      -0.28760174      -0.00014220       0.00114961       0.00204224
Au       9.78124573       5.95481562       3.89477714      -0.48587863       0.00177798       0.00091364      -0.00064831
Au       7.80685255       3.84227240       7.77463458       0.74178078      -0.00054411       0.00155809       0.00131568
Al       7.80095850       5.89210650       9.78053440      -1.29967409       0.00094882      -0.00072757      -0.00055029
Al       9.81492539       3.92721512       9.75888425      -2.25230553       0.00081840      -0.00096185      -0.00052528
Au       9.87422045       5.94498910       7.73805416       0.62759109       0.00156330      -0.00112516      -0.00023058
Al       7.76811200       3.90865822      11.75105764      -2.34938430       0.00021941       0.00180706      -0.00038989
Au       7.76324224       5.92874383      13.74131371       0.18365253       0.00020552       0.00080675       0.00035072
Au       9.77795714       3.91267687      13.85171897       0.53087932      -0.00042156       0.00107027       0.00147531
Au       9.82094675       5.83103811      11.78030496       1.36304596       0.00276101       0.00086865       0.00061369
Cu       7.72001338       7.87579501      -0.02204696       2.97566985       0.00014938      -0.00068639      -0.00183050
Al       7.84271496       9.82646693       1.99507453      -3.23516303       0.00065506      -0.00015503      -0.00008353
Cu       9.78574926       7.88166079       1.99473052       2.94255977       0.00127699      -0.00079936      -0.00008792
Au       9.72996547       9.75406407       0.04446656      -0.83509538       0.00091546      -0.00052448       0.00045629
Cu       7.88351584       7.86554143       3.95680114       3.09942211       0.00105399      -0.00084801      -0.00048143
Au       7.85347025       9.77525838       5.85333591       0.39968014       0.00126010       0.00069211      -0.00092857
Cu       9.83615783       7.84017651       5.79938432       2.98965448       0.00208207       0.00139715       0.00102734
Au       9.79330068       9.77755468       3.91633538      -0.88119578       0.00072353      -0.00059666      -0.00066770
Al       7.81372743       7.92279904       7.92030453      -1.88087619       0.00079030      -0.00066597       0.00169564
Cu       7.72472848       9.92315532       9.91508440       3.03015976       0.00099501       0.00004935       0.00081199
Al       9.86035660       7.87964341       9.80936356      -1.76654839       0.00243087       0.00005090       0.00006203
Al       9.84594929       9.75496696       7.85041425      -2.20882734       0.00338620       0.00014485      -0.00147676
Au       7.73879453       7.93575153      11.71440314       0.14380361      -0.00000444       0.00023820       0.00049279
Au       7.74275206       9.83471781      13.69034573      -0.55222903       0.00160963      -0.00064537       0.00125393
Al       9.78479528       7.87950487      13.68845182      -2.63705350       0.00189505      -0.00052683      -0.00008090
Au       9.81790397       9.90239130      11.72852428       0.53098505       0.00137587      -0.00077663       0.00138258
Au       7.86547465      11.85958603      -0.05205303      -0.82457892       0.00154444      -0.00094734      -0.00023171
Al       7.86883082      13.71627024       1.95788974      -2.89288814       0.00021584       0.00022175      -0.00027687
Cu       9.82846077      11.77891391       1.99365700       2.67757484       0.00084809       0.00089224       0.00014843
Cu       9.75726908      13.69054614      -0.05485044       2.59613678       0.00012104       0.00189651      -0.00045688
Cu       7.87416031      11.81041914       3.94872325       3.06458933       0.00135746       0.00015222       0.00120009
Cu       7.86340582      13.67760872       5.88062504       3.30531982       0.00007094      -0.00107865      -0.00028220
Al       9.80509646      11.74365468       5.91607336      -2.72609295       0.00293192      -0.00043610       0.00210094
Au       9.81325631      13.66599536       3.90840406      -0.04564210      -0.00016419      -0.00056440       0.00114787
Au       7.77563348      11.77456774       7.95090877       0.49891614       0.00213269       0.00078412       0.00116679
Al       7.75210708      13.80869310       9.85610831      -2.31875115       0.00067120      -0.00034460      -0.00051378
Au       9.86121164      11.80272119       9.77049937       0.50857553       0.00165386      -0.00045672       0.00029475
Au       9.83091390      13.78823869       7.82514253       0.47737881       0.00175154      -0.00011394       0.00077175
Al       7.78232589      11.86052133      11.78087097      -3.06591411       0.00203052      -0.00087996       0.00005368
Cu       7.83290791      13.77743190      13.76235127       2.51077729      -0.00002341      -0.00086159       0.00021494
Cu       9.76071401      11.74306844      13.78799088       3.06714263       0.00113879      -0.00050896       0.00064888
Al       9.77140756      13.73692514      11.82482353      -2.03737357       0.00165102       0.00035437       0.00125991
Au       7.85546212      15.64773684       0.02834622      -0.18740099       0.00250226      -0.00242500       0.00219236
Au       7.74586193      17.74306825       2.07703235      -0.86362336      -0.00113660       0.00062797      -0.00223458
Al       9.82157434      15.70307008       2.01304408      -2.20936419      -0.00067951      -0.00085119      -0.00166673
Al       9.76638372      17.64876664       0.04048419      -2.53214617      -0.00228725      -0.00017439       0.00141342
Al       7.82106654      15.71114287       3.89719307      -2.35112353      -0.00016037      -0.00169417      -0.00087196
Au       7.72849258      17.72795379       5.72736509       0.10138418       0.00099618      -0.00235995      -0.00013434
Al       9.80333218      15.73665787       5.77028094      -2.14822196      -0.00013353       0.00035387      -0.00031340
Cu       9.76074014      17.79235370       3.79460084       3.09672595      -0.00087540      -0.00155316       0.00058432
Au       7.77298396      15.67256662       7.77863618       1.06878036      -0.00035257      -0.00016423      -0.00016206
Au       7.73425431      17.47290036       9.92928540       0.24615107       0.00024357       0.00046130      -0.00117896
Al       9.83458427      15.61919712       9.85562479      -1.94974996       0.00021549       0.00060000      -0.00095434
Al       9.79403792      17.55512212       7.82934693      -1.54691757      -0.00201964       0.00014355       0.00046011
Cu       7.72820402      15.62180898      11.84109034       2.94836311       0.00073952       0.00038668       0.00026156
Au       7.79473050      17.55347726      13.63655191      -0.22298505      -0.00024363       0.00130484      -0.00085727
Cu       9.67347420      15.61846810      13.76215087       3.05498791      -0.00049084      -0.00005945       0.00059227
Al       9.85285054      17.54504247      11.82799052      -2.06072150      -0.00094106       0.00101372       0.00051514
Cu      11.71274900       0.12360845       0.04257569       2.54497875       0.00080705      -0.00009057       0.00083753
Cu      11.77003225       1.89930154       1.91440175       2.34038345       0.00065209       0.00111676      -0.00168088