399
Lattice="19.59262691714357 -0.0029401591670048664 0.00043227724696582155 -0.0029405439160256983 19.594541571232078 0.002722427805357169 0.0003459403246241731 0.002177382872289726 15.670877927394494" Properties=species:S:1:pos:R:3:energies:R:1:forces:R:3 energy=12.084539039540392 free_energy=12.084539039540392 stress="0.0008649788111365126 0.0002654793351843483 -0.00021124847742867863 0.0002654793351843483 7.218809154951225e-05 -0.00025178757184994837 -0.00021124847742867863 -0.00025178757184994837 0.0007332344112372687" pbc="T T T"
Au       0.01980705       0.04221369       0.05156866      -1.14418009      -0.00085062       0.00234425       0.00178018
Cu      -0.06406115       1.89360448       1.89328688       2.69534235       0.00072945      -0.00057895       0.00080284
Cu       2.03630107       0.00735672       2.00376533       3.18759600       0.00377228       0.00199690      -0.00153298
Al       1.97851485       1.94283969       0.11338689      -3.27318553       0.00076527      -0.00149918       0.00031051
Al      -0.05765250      -0.04204069       3.84681318      -2.52368404      -0.00152232      -0.00093421       0.00170020
Al      -0.08424486       1.97686849       5.79899534      -1.88673591      -0.00037497      -0.00076046      -0.00086066
Al       1.89898226       0.00330063       5.84522706      -2.17945951      -0.00005991       0.00139068      -0.00363890
Al       1.89739539       1.91025718       3.82308768      -2.83377236      -0.00081346       0.00155691      -0.00031487
Al      -0.08116328      -0.02139077       7.75743517      -2.48517384       0.00134166       0.00137633       0.00321263
Au      -0.00178090       1.93266433       9.76085362      -0.02095739       0.00014499      -0.00019927       0.00143548
Cu       1.87008896      -0.10583003       9.80177743       2.19737513       0.00205675      -0.00077680       0.00061900
Au       1.94778479       1.90805054       7.87877676      -0.59633117       0.00120423      -0.00018328       0.00145450
Cu       0.03055187      -0.11716726      11.73810393       2.03035853      -0.00304142       0.00029710      -0.00262870
Cu       0.01151367       1.89278717      13.78777733       2.58036440      -0.00220918       0.00125862       0.00039571
Au       1.86372711      -0.04591913      13.66612188      -0.22179417       0.00317883       0.00551202      -0.00225695
Au       1.89313044       1.86920059      11.69435170      -0.88623026       0.00139557       0.00353247      -0.00594895
Cu       0.03193473       3.84024054       0.09494030       2.23613236      -0.00016136      -0.00061555      -0.00021642
Cu      -0.08754597       5.78792200       1.85884254       2.76271260       0.00098398       0.00022769      -0.00308997
Cu       1.88441558       3.84031270       1.94043501       2.85923169       0.00010358       0.00070344       0.00116445
Au       1.93682450       5.77810454       0.07955188      -0.35360852      -0.00044800       0.00063971      -0.00034646
Al      -0.05633977       3.86887867       3.80040192      -2.51861427       0.00014182       0.00011537       0.00074279
Au       0.00171775       5.76754270       5.91735942       0.13955983      -0.00084967      -0.00068978      -0.00136346
Au       2.02011098       3.79019309       5.82148950       0.34481062       0.00262189      -0.00003906       0.00038486
Al       1.91148998       5.76787825       3.82773453      -2.29535289      -0.00079537       0.00052320      -0.00050821
Cu       0.11010648       3.87645795       7.82490779       3.32623385      -0.00000450      -0.00073108      -0.00074064
Au       0.05378662       5.83377004       9.71283842       0.58377985      -0.00090196      -0.00096161       0.00045259
Cu       1.95955374       3.83584226       9.80282778       2.85962879       0.00082757       0.00030395      -0.00050075
Al       1.98201362       5.86238051       7.82766372      -3.21915637      -0.00136215       0.00065566       0.00060265
Au       0.01076142       3.90870600      11.77835500       0.30078835      -0.00198411       0.00049009      -0.00054009
Au      -0.03094476       5.84932377      13.84601425       0.38862590      -0.00059615       0.00075298       0.00107602
Au       1.92115438       3.83930552      13.78475069       0.17765937       0.00051654       0.00246886       0.00069456
Al       1.98252850       5.86679433      11.81607055      -2.76345896      -0.00047755       0.00047921       0.00142573
Al       0.01348299       7.82476778       0.06824425      -2.95945700      -0.00025731      -0.00142392      -0.00071686
Au       0.04888549       9.78914237       2.05835233      -0.05784089      -0.00183337       0.00020102      -0.00012453
Al       1.94356906       7.83036606       1.95019263      -2.39907209       0.00158551      -0.00051090       0.00060570
Cu       1.98027484       9.84384386       0.01774740       3.03217192       0.00111154      -0.00107223      -0.00045297
Al       0.05786694       7.76306134       3.95344773      -2.59046274      -0.00096096      -0.00121504       0.00125955
Al       0.05261645       9.75056936       5.92548183      -2.71346409      -0.00272508       0.00005049      -0.00153069
Cu       1.95851223       7.80567405       5.93045351       3.14904845      -0.00035506       0.00118152      -0.00023337
Cu       1.92960179       9.90191921       3.93809243       3.07732098      -0.00024089      -0.00033982       0.00023480
Cu      -0.00187640       7.73336780       7.76810278       3.57053533      -0.00249550      -0.00009043      -0.00061423
Al       0.01176765       9.80045249       9.71278960      -2.23738333      -0.00083682      -0.00071586      -0.00011824
Al       2.01713467       7.90354229       9.78730480      -2.21228138      -0.00198666      -0.00012719       0.00193794
Al       1.99319994       9.78639271       7.89222252      -2.12826583      -0.00008666      -0.00035015      -0.00031981
Al       0.09010329       7.85370880      11.74281303      -2.15633600      -0.00098559      -0.00002581       0.00105720
Au       0.17366029       9.79280035      13.68898811       0.01885628      -0.00052265      -0.00032079      -0.00033296
Cu       1.96544941       7.81134750      13.78729387       3.07350064      -0.00052786       0.00182056      -0.00158906
Cu       2.02228907       9.92700498      11.72523231       2.94409706      -0.00028487       0.00124080       0.00030442
Al       0.10623371      11.84735629      -0.02951469      -3.03624455       0.00040334      -0.00048252      -0.00084028
Cu       0.11849655      13.81635105       1.99166467       2.83446153      -0.00011370      -0.00014612       0.00121271
Au       1.89110110      11.80674985       1.99657965      -1.08966238      -0.00171740       0.00035505       0.00005920
Cu       1.99903541      13.81450136      -0.06770372       2.29397901       0.00028641      -0.00228623      -0.00122534
Cu       0.02071909      11.80705873       3.97747344       2.77656997       0.00010232       0.00074993       0.00039403
Au       0.02299068      13.81832575       6.07392347      -1.61109255      -0.00220210      -0.00158806      -0.00137097
Au       1.86390342      11.80371848       5.94599986       0.06759947      -0.00014336      -0.00103264      -0.00103321
Au       1.85738202      13.81188139       3.96394410      -0.42453999      -0.00097698       0.00033272      -0.00053545
Cu       0.03031805      11.89247815       7.88525586       3.24494810      -0.00084813       0.00147010       0.00156775
Au      -0.04929650      13.78543401       9.69649192      -2.02971295       0.00022019      -0.00085092      -0.00167220
Au       2.02235399      11.86041000       9.81479572      -1.43107986       0.00082769       0.00021950      -0.00034126
Cu       1.92344965      13.81583185       7.91788340       2.65668733      -0.00162521       0.00049415       0.00076158
Au       0.01381810      11.80435236      11.66730016      -0.46373355      -0.00052014       0.00038013      -0.00091309
Au       0.04380086      13.83743834      13.60582305      -0.70307404      -0.00181845      -0.00179030       0.00007629
Au       2.02253225      11.89298262      13.59957173      -1.29734171       0.00090364       0.00058855      -0.00119901
Cu       2.03889731      13.77273593      11.70774582       1.98370612      -0.00026501      -0.00132972      -0.00099320
Au       0.22138994      15.69949869      -0.03901797      -0.59311686      -0.00366497      -0.00538102       0.00285662
Al       0.15313208      17.68176092       1.90326167      -2.24147998      -0.00293733      -0.00174046       0.00517987
Cu       1.94046659      15.66602650       1.93884559       2.61537918       0.00099396      -0.00143302       0.00273000
Au       0.02427039      15.80990040       3.95644913      -0.33570620      -0.00117188       0.00080410      -0.00096424
Cu      -0.09357276      17.59774876       5.88714597       2.89453301      -0.00110617       0.00102929      -0.00229127
Cu       1.85199019      15.76088388       6.00881892       2.64569069       0.00042160      -0.00125614      -0.00212658
Al       1.98316601      17.65642526       3.98572622      -2.60699018      -0.00079548       0.00009690       0.00101727
Cu       0.01412926      15.72720603       7.91401868       2.23542317       0.00242231      -0.00124462       0.00096002
Cu      -0.00328116      17.59996029       9.82469818       2.16946394       0.00031078       0.00032443      -0.00008460
Au       1.93514156      15.70713583       9.84081424      -2.46756364       0.00081033      -0.00069308      -0.00037834
Au       1.84894961      17.64270237       7.84511584      -1.59047048       0.00032993      -0.00036533       0.00178306
Al      -0.07115415      15.70242141      11.66940029      -4.14446477       0.00007286      -0.00355785      -0.00135207
Au       0.02302816      17.58069018      13.64151985      -1.31438667      -0.00435505       0.00024819      -0.00129037
Cu       1.98957276      15.61625571      13.58347146       1.90506335      -0.00000573      -0.00030125      -0.00026010
Cu       1.90350542      17.62467114      11.67349883       2.04222865       0.00140146      -0.00168044      -0.00079781
Au       3.73518449      -0.18880088       0.07244927       0.02265370       0.00171390       0.00635111       0.00647184
Cu       3.88384155       1.92731613       2.07558303       2.55674426      -0.00061755      -0.00181767       0.00148447
Al       5.74934976      -0.05912531       1.98241150      -3.43680810       0.00008861      -0.00207798      -0.00020301
Al       5.72677687       1.87846429       0.04675383      -2.26455142      -0.00022914       0.00236297      -0.00102583
Au       3.92508503      -0.02630037       3.94121772      -1.45988882       0.00001726      -0.00157197      -0.00102587
Cu       3.94366457       1.86706032       5.85422832       2.69394579       0.00005130       0.00043305      -0.00096474
Cu       5.81091924      -0.01210067       5.80131843       1.89586298      -0.00174219      -0.00172421       0.00050501
Cu       5.80203943       1.87599535       3.95464945       1.75462222      -0.00058020       0.00019445      -0.00074205
Au       3.85846612      -0.03484160       7.87389135      -0.99733862       0.00119441       0.00069160       0.00002792
Cu       3.82389136       1.92654782       9.80383685       2.86285553      -0.00103882       0.00110340       0.00132047
Al       5.82792736       0.00236491       9.85062242      -2.97194981      -0.00132432      -0.00095854       0.00092557
Au       5.87615098       1.84583185       7.76690914      -0.29610200       0.00187204       0.00062931       0.00092779
Al       3.86173648      -0.07453894      11.65991334      -3.31263347       0.00086071      -0.00090074      -0.00265427
Al       3.90137518       1.88111818      13.71930831      -2.28282024       0.00077565       0.00234805      -0.00154608
Au       5.77421745      -0.13200827      13.66478622       0.29105087       0.00397262       0.00097881      -0.00100678
Cu       5.85088887       1.94408151      11.79346844       3.12316540      -0.00164360       0.00215335       0.00034269
Al       3.94500794       3.85848440       0.07699408      -2.53875497      -0.00004678       0.00075755      -0.00185562
Al       3.91374524       5.77677329       2.02090759      -2.26590439       0.00050128      -0.00002691      -0.00175947
Cu       5.77140211       3.72729526       2.11923458       2.95033951      -0.00054301       0.00024041      -0.00164753
Au       5.78536724       5.90815271      -0.05228885      -0.20280091       0.00027264      -0.00031287       0.00021143
Cu       3.89051057       3.72512364       3.88232426       2.41003827       0.00049409      -0.00039635      -0.00029993
Au       3.83427151       5.90040018       5.83179839       0.52160125       0.00201968       0.00141565       0.00038874
Al       5.78382001       3.86710626       5.82745706      -3.01549844      -0.00106044      -0.00034892       0.00199667
Al       5.81041718       5.87462081       3.90407591      -2.35941323       0.00176708       0.00101537      -0.00034098
Au       3.89730704       3.80765652       7.87566511       0.11869062       0.00067042       0.00092162       0.00065533
Au       3.87581219       5.85989104       9.80168071       1.00001712       0.00045279       0.00084956       0.00171560
Al       5.87347623       3.80768293       9.81095388      -2.35689337      -0.00186788       0.00129130       0.00162471
Al       5.84155190       5.88057890       7.84604112      -2.05370560       0.00092634      -0.00057363       0.00030004
Au       3.90895983       3.82397153      11.76577240      -0.32120807       0.00047461       0.00064989      -0.00023740
Cu       3.86825952       5.88469914      13.76943089       2.77071884       0.00171332      -0.00095048       0.00070940
Cu       5.78224295       3.93979139      13.68806799       3.26276662       0.00072639      -0.00044468       0.00054059
Al       5.79371322       5.89857796      11.79811968      -2.60524387      -0.00037614       0.00031335       0.00025348
Au       3.83365023       7.87690706      -0.05910411      -0.78625455      -0.00032402       0.00002322      -0.00121932
Cu       3.81484396       9.86341690       1.91953431       2.80676626       0.00030082      -0.00083022      -0.00146408
Au       5.80396195       7.90304770       1.96741651       0.53509350       0.00075258       0.00001753       0.00039925
Au       5.82158246       9.82529867      -0.01317279      -0.32730073      -0.00148697      -0.00093602       0.00067691
Au       3.75790075       7.96736145       3.92551697       0.48414574       0.00008007       0.00103857       0.00089025
Al       3.84184966       9.83844092       5.93918237      -2.31403762       0.00129159      -0.00073912       0.00159837
Au       5.81711635       7.87487704       5.87881201       0.91998828       0.00054441      -0.00001125       0.00024922
Al       5.86819975       9.83311914       3.91128314      -2.71880079       0.00196071      -0.00041704       0.00023958
Cu       3.90801783       7.82363577       7.81987971       3.44882139      -0.00058058       0.00250503       0.00067825
Cu       3.90765145       9.91254035       9.98110540       2.42672617       0.00081439       0.00013941      -0.00020261
Au       5.72424501       7.98586154       9.82748033      -0.03539321       0.00174181       0.00108495      -0.00009838
Al       5.77960374       9.87603753       7.91061470      -2.53733702       0.00097562      -0.00072907       0.00170144
Au       3.86400843       7.91858964      11.88201550      -0.66803377       0.00014254      -0.00231624      -0.00007706
Al       3.87042025       9.88290868      13.67659529      -3.72514535      -0.00234352       0.00005826      -0.00047880
Cu       5.84716405       7.88106858      13.73785754       2.72867446       0.00083540      -0.00075371      -0.00116035
Cu       5.79931832       9.87729049      11.74985505       2.19485337       0.00169075      -0.00078041       0.00086844
Au       3.80666506      11.83866585       0.01431763      -0.62750832       0.00068880      -0.00122791       0.00059747
Al       3.85106633      13.85989189       1.98371039      -3.26061076       0.00226581      -0.00116300       0.00258254
Au       5.84147995      11.78314311       1.95818792       0.50310052      -0.00237897       0.00079678      -0.00195959
Au       5.73470297      13.87473142       0.00403528      -0.24154931      -0.00089960      -0.00113464       0.00027204
Au       3.84795606      11.75490581       3.92472616       0.35428344       0.00028277       0.00215272      -0.00065397
Al       3.83348347      13.77425889       5.91589931      -2.21869777       0.00052891      -0.00046616      -0.00015562
Au       5.94105730      11.83105745       5.86532715       0.75828769      -0.00014438      -0.00062493       0.00122170
Au       5.91581875      13.74985565       3.90812044       0.71913611      -0.00393991      -0.00038313      -0.00160858
Al       3.90955697      11.84631492       7.91373987      -2.24519930      -0.00074107      -0.00099228       0.00043308
Cu       3.83976278      13.82177153       9.85317663       2.20103548       0.00016463      -0.00192110       0.00115345
Cu       5.75682130      11.75273670       9.94296892       2.36335485       0.00192088      -0.00183706       0.00060413
Al       5.81095202      13.75343323       7.95403435      -2.41374268       0.00037290      -0.00060740       0.00042091
Cu       3.89733514      11.87587000      11.69165170       1.82067654      -0.00054171      -0.00110515       0.00025508
Cu       3.79979348      13.81857929      13.66586088       1.94333704       0.00186179      -0.00046871      -0.00013968
Au       5.76643245      11.92265379      13.65824556      -0.57826237       0.00113551       0.00010984      -0.00017328
Au       5.70283019      13.82490120      11.68166479      -1.72685333      -0.00110050      -0.00212024      -0.00115349
Cu       3.69358103      15.74351818      -0.00534723       1.80074352       0.00171197      -0.00399628       0.00110073
Cu       3.82101189      17.53546881       1.95853137       2.27068466       0.00134916       0.00356355       0.00123462
Cu       5.81367307      15.78676725       2.00697813       2.92013086       0.00079276      -0.00063065      -0.00119435
Au       5.74905324      17.49942186       0.05581844      -0.52382316      -0.00149842      -0.00169823       0.00064102
Al       3.86553819      15.77057294       3.97882256      -2.70100276       0.00121265      -0.00164761       0.00247806
Cu       3.92493424      17.69163844       5.94846395       2.93610847      -0.00007625      -0.00008979      -0.00096262
Al       5.83510011      15.68923533       5.85295022      -2.31880346      -0.00192670      -0.00128989       0.00023614
Cu       5.78023471      17.69280634       3.92470947       2.60261492      -0.00113189       0.00074889      -0.00038621
Au       3.83067960      15.71274935       7.87021168      -1.01840245       0.00007189       0.00150631       0.00106252
Cu       3.82128760      17.57958049       9.80642603       2.20723559      -0.00130855      -0.00029297       0.00223961
Cu       5.69537553      15.76271007       9.86212079       2.23779321      -0.00149357      -0.00102133       0.00042081
Au       5.80701445      17.63746145       7.85565428      -0.28878466      -0.00069944       0.00000353       0.00129423
Cu       3.79990967      15.71936851      11.68443410       1.54717340       0.00156120      -0.00139794      -0.00194665
Au       3.74265259      17.51614244      13.64990052      -1.14329598       0.00371820      -0.00238857      -0.00667638
Al       5.74280572      15.65740926      13.66414808      -3.79336570      -0.00005070      -0.00175816       0.00038315
Cu       5.76586540      17.51217555      11.72619071       2.47449054       0.00062353       0.00043062      -0.00169513
Au       7.80598704      -0.05510648       0.00569173       0.17548959       0.00025331       0.00218904      -0.00043834
Au       7.73684624       1.85953429       1.98816628      -0.47672322       0.00076286       0.00031358       0.00120928
Cu       9.76208142       0.03995840       1.94014373       2.32972526      -0.00148592       0.00019266       0.00019953
Cu       9.77351833       1.84641313       0.06294716       2.57308990      -0.00011714      -0.00031801      -0.00003816
Cu       7.73050551       0.02591619       3.91970543       2.21283288      -0.00326946       0.00013897      -0.00057403
Cu       7.75233107       1.87108250       5.77866624       2.50607316      -0.00205423       0.00165978       0.00272967
Al       9.78390407      -0.04649409       5.81852687      -2.56048343      -0.00194715       0.00063116      -0.00018203
Au       9.75295707       1.86528333       3.84333632      -0.66638511       0.00085098      -0.00026685       0.00151553
Al       7.83117371      -0.05858754       7.85198973      -2.28761058      -0.00102519      -0.00014332       0.00011478
Cu       7.83754663       1.93868345       9.80365109       3.45317762       0.00120626       0.00073063      -0.00074904
Al       9.79806813      -0.04927823       9.83448441      -1.75057235      -0.00122603       0.00113323       0.00046854
Au       9.76788930       1.93030193       7.79925646       0.77972189       0.00025317      -0.00108725       0.00049374
Au       7.78333752       0.03692044      11.74370529       0.05191764      -0.00170823       0.00082638      -0.00052550
Au       7.71857454       1.97653611      13.74950502       0.00611134       0.00020651       0.00072566      -0.00192328
Au       9.84066203       0.03840976      13.76795666       0.09549073      -0.00067688       0.00192198      -0.00052615
Au       9.83027424       2.02589519      11.77919402       0.72896332      -0.00016567       0.00018581      -0.00025980
Al       7.68222888       3.89427762       0.07872446      -2.38113208      -0.00117649      -0.00118961      -0.00036609
Al       7.74440602       5.91909788       1.97746209      -2.50248142       0.00007785       0.00099772      -0.00063426
Al       9.74341259       3.88914898       1.90277378      -2.25663705      -0.00164753      -0.00007733       0.00003296
Au       9.74941967       6.06475734       0.07022443       0.64658171       0.00041743      -0.00039062       0.00059415
Au       7.73016491       3.83135008       3.91294310       0.01846640      -0.00126645      -0.00058071       0.00130792
Au       7.84264091       5.96820885       5.85038137       0.33218973       0.00057022       0.00154440       0.00065518
Au       9.79262174       3.90271003       5.79977156      -0.28940103       0.00057901       0.00012291       0.00020355
Au       9.78333076       5.95822623       3.89375055      -0.48644689      -0.00031363      -0.00061612       0.00027941
Au       7.81141107       3.84543819       7.77947471       0.74986942       0.00096283       0.00024098      -0.00033669
Al       7.80377860       5.89270537       9.78665685      -1.30018480       0.00219866       0.00035524       0.00023477
Al       9.81475377       3.92630152       9.76457013      -2.25068763       0.00146819       0.00101049      -0.00045377
Au       9.87749516       5.94825471       7.74048724       0.63007502       0.00087291      -0.00166392       0.00118283
Al       7.76407239       3.90263167      11.76292035      -2.34695511       0.00050299       0.00108423      -0.00165565
Au       7.76232198       5.93119027      13.74209857       0.19816062       0.00098935      -0.00087715       0.00165548
Au       9.76997476       3.90614635      13.85751542       0.52691083       0.00133943       0.00025969       0.00054241
Au       9.82043014       5.82921200      11.78536340       1.36011727       0.00200351       0.00086656       0.00136173
Cu       7.72261970       7.87676621      -0.01979152       2.97155526       0.00049056       0.00009239      -0.00067867
Al       7.84256841       9.83381111       1.99460582      -3.22910666       0.00005665      -0.00025895      -0.00040395
Cu       9.78502804       7.88381850       1.99126985       2.92377396       0.00041125      -0.00058717      -0.00107649
Au       9.72871788       9.76353782       0.04552626      -0.83705720       0.00057317       0.00091070       0.00045053
Cu       7.88486400       7.86547549       3.95196726       3.08752835       0.00103548      -0.00040664      -0.00038974
Au       7.85734165       9.77537829       5.84932470       0.39525030       0.00070615       0.00081852      -0.00027018
Cu       9.83954680       7.84277607       5.79814815       2.98799429       0.00172375       0.00068465      -0.00104837
Au       9.79655677       9.78106178       3.91255876      -0.87026501       0.00004536       0.00046324      -0.00062382
Al       7.81731094       7.92444482       7.92097747      -1.87974897       0.00091802       0.00129171       0.00017354
Cu       7.72791439       9.92351710       9.91699848       3.03149439       0.00251043      -0.00121914       0.00035887
Al       9.86302353       7.88129745       9.81213049      -1.76499958       0.00159061       0.00127613       0.00258238
Al       9.85282249       9.75338003       7.84953799      -2.20614214       0.00042275       0.00129477      -0.00120344
Au       7.74105758       7.93904568      11.71817466       0.14095703       0.00219530       0.00001773       0.00096042
Au       7.74357349       9.83859870      13.69474436      -0.55204957       0.00023058       0.00066964       0.00122532
Al       9.78738541       7.88376562      13.69010731      -2.63733913       0.00004256      -0.00017817       0.00240955
Au       9.82086712       9.90493689      11.73256604       0.53623139       0.00194652       0.00019488       0.00135782
Au       7.85456357      11.87399706      -0.05288870      -0.82460400      -0.00013145       0.00022390      -0.00039442
Al       7.85753518      13.72621083       1.95773189      -2.86358438       0.00012173       0.00050690      -0.00005218
Cu       9.82772506      11.78700085       1.98949844       2.66671087       0.00022406       0.00112620      -0.00048111
Cu       9.75622211      13.69083159      -0.06062784       2.60184872       0.00078853       0.00146521       0.00052016
Cu       7.87488361      11.81545318       3.94866058       3.05678420      -0.00094777       0.00041019       0.00030239
Cu       7.86819919      13.66922244       5.88985836       3.31109272      -0.00023014       0.00115676      -0.00131957
Al       9.81340896      11.74102622       5.91628638      -2.72413278       0.00007129       0.00078573      -0.00177577
Au       9.81924333      13.66092743       3.91031553      -0.04064402       0.00091244      -0.00026764       0.00112563
Au       7.78207402      11.76887576       7.95034047       0.49271955       0.00131749      -0.00120720       0.00044757
Al       7.75880427      13.80183731       9.85637040      -2.31600295      -0.00155941      -0.00088371       0.00018845
Au       9.86740744      11.79949517       9.77197388       0.50567447       0.00076295      -0.00035561       0.00012764
Au       9.83862731      13.78382725       7.82845517       0.47438620       0.00069380       0.00132629      -0.00187453
Al       7.78255284      11.85880527      11.78414145      -3.06720230       0.00019765       0.00047527       0.00006556
Cu       7.81738484      13.78398498      13.75826686       2.51478681      -0.00026309      -0.00008187      -0.00078702
Cu       9.75872156      11.74613539      13.79205220       3.06399282       0.00112532       0.00019339       0.00005985
Al       9.77108574      13.73421983      11.82729185      -2.03600346       0.00145101      -0.00009146      -0.00076947
Au       7.85088152      15.63971205       0.01982938      -0.18819890      -0.00027032      -0.00102511      -0.00299566
Au       7.79104723      17.68021476       2.08945969      -0.55864297      -0.00052812       0.00238840      -0.00025452
Al       9.83706225      15.67908643       2.00575905      -2.22994893      -0.00069116      -0.00075315      -0.00001077
Al       9.77611617      17.63416992       0.02915368      -2.52373234       0.00070578      -0.00012162      -0.00069241
Al       7.83303358      15.68682124       3.92413157      -2.33785206      -0.00227140      -0.00013095      -0.00039309
Au       7.74506634      17.72561386       5.73101353       0.09391512      -0.00135977      -0.00104917       0.00087012
Al       9.81730789      15.72868067       5.78499233      -2.15746639      -0.00150636       0.00052071      -0.00089420
Cu       9.78858493      17.77162815       3.81164731       3.10782428       0.00034970      -0.00007067      -0.00098023
Au       7.77942985      15.67180518       7.78587975       1.07147681      -0.00088470      -0.00014508       0.00085352
Au       7.73177746      17.47561052       9.93779710       0.24838041      -0.00255513      -0.00224650      -0.00033697
Al       9.83648275      15.61888275       9.85707733      -1.94478403      -0.00150050       0.00068253       0.00036996
Al       9.79862812      17.55750581       7.83508065      -1.54481416      -0.00263346      -0.00057557      -0.00017432
Cu       7.71946094      15.61790779      11.83860851       2.94589637       0.00078327       0.00092182      -0.00051011
Au       7.78588196      17.54389116      13.63145061      -0.23010583       0.00038274       0.00083250       0.00049254
Cu       9.67182055      15.61401882      13.75684410       3.06053349       0.00065026      -0.00148330       0.00109915
Al       9.85126398      17.54298725      11.82867767      -2.05745437       0.00135902       0.00040039      -0.00013892
Cu      11.71311488       0.11891892       0.04100561       2.54036644      -0.00072855      -0.00015293       0.00189978
Cu      11.76907017       1.89911260       1.91267444       2.33465034       0.00077133      -0.00037655      -0.00202925