399
Lattice="19.59262691714357 -0.0029401591670048664 0.00043227724696582155 -0.0029405439160256983 19.594541571232078 0.002722427805357169 0.0003459403246241731 0.002177382872289726 15.670877927394494" Properties=species:S:1:pos:R:3:energies:R:1:forces:R:3 energy=11.835907706926879 free_energy=11.835907706926879 stress="8.605718805612327e-05 2.3720003370004183e-05 -7.473046677856624e-05 2.3720003370004183e-05 -0.0005934001297027506 5.777057249674576e-06 -7.473046677856624e-05 5.777057249674576e-06 0.0003739191775516148" pbc="T T T"
Au      -0.01574016       0.04589783       0.06249318      -1.22922806       0.00002001      -0.00027140      -0.00031824
Cu      -0.07670067       1.91285841       1.88733536       2.72795566       0.00008659       0.00144154       0.00114592
Cu       2.03745207      -0.04489594       1.94940657       3.21554950      -0.00067567       0.00220057       0.00040757
Al       1.96250435       1.93661002       0.11379990      -3.31737083      -0.00078538       0.00004331      -0.00011409
Al      -0.04334413       0.00974347       3.84989429      -2.48149072      -0.00177739      -0.00034512      -0.00027794
Al      -0.07237783       1.98277883       5.80460916      -1.89661686      -0.00098423       0.00053154      -0.00306852
Al       1.90358530      -0.00882528       5.83082177      -2.18339087      -0.00004761       0.00108615      -0.00121083
Al       1.91253457       1.89809559       3.78749949      -2.81292629      -0.00091931      -0.00145339       0.00018195
Al      -0.08159593      -0.02986785       7.75263443      -2.48555265      -0.00111746      -0.00026957      -0.00195436
Au       0.00189745       1.92447436       9.75742216      -0.01870592       0.00078260       0.00002963      -0.00077997
Cu       1.86986283      -0.11660852       9.80489497       2.18525373       0.00016277       0.00029294       0.00042956
Au       1.95046697       1.89947701       7.87457553      -0.58712280       0.00093160      -0.00023983       0.00115722
Cu       0.02909378      -0.12275782      11.74287350       2.00067026       0.00145881      -0.00109507       0.00144908
Cu       0.00745177       1.89248004      13.78146599       2.56490591      -0.00086164      -0.00122991      -0.00098377
Au       1.87485958      -0.04173082      13.67237783      -0.28246739      -0.00092883      -0.00098584      -0.00001570
Au       1.89552933       1.86701216      11.69065583      -0.87828635       0.00010021      -0.00012602       0.00001566
Cu       0.02575188       3.84742060       0.08851746       2.22966955       0.00120031      -0.00063048      -0.00061759
Cu      -0.08463021       5.78905121       1.85696243       2.75812324       0.00103534      -0.00099994      -0.00092011
Cu       1.88245972       3.84613119       1.93169158       2.87510407       0.00000005       0.00172805      -0.00064490
Au       1.93954981       5.77924441       0.07401547      -0.35610232       0.00079423       0.00075031      -0.00062746
Al      -0.04712667       3.86752549       3.80212649      -2.51981495      -0.00113550       0.00167363      -0.00065253
Au       0.00747305       5.76145518       5.91666455       0.14214021       0.00102919       0.00075905       0.00044157
Au       2.02897847       3.77951938       5.81069402       0.34056461       0.00047646       0.00194474       0.00110708
Al       1.91553594       5.76681487       3.82492114      -2.29301934       0.00133628       0.00031786      -0.00013922
Cu       0.11609821       3.87224400       7.82505355       3.32501261       0.00091373       0.00022876       0.00065424
Au       0.05951051       5.83064379       9.71390728       0.58071749       0.00243934      -0.00037770      -0.00069171
Cu       1.96156240       3.83119560       9.79904331       2.86099827       0.00052487       0.00062594      -0.00022547
Al       1.98388447       5.85587125       7.82432519      -3.22426474       0.00096755       0.00139422       0.00081269
Au       0.01541618       3.90511784      11.77371950       0.29878731      -0.00071709      -0.00073204       0.00001630
Au      -0.02702239       5.85052505      13.84182421       0.38996255      -0.00072561      -0.00045163      -0.00057089
Au       1.92093472       3.83620481      13.78309421       0.18268202       0.00037416      -0.00131276      -0.00084454
Al       1.98543165       5.86593086      11.81698681      -2.76239360       0.00002680       0.00107204      -0.00005138
Al       0.01582670       7.82381119       0.06453374      -2.96052810      -0.00098134       0.00157217      -0.00123378
Au       0.05119642       9.78432895       2.05428784      -0.07108202       0.00078644      -0.00116090       0.00097379
Al       1.94741659       7.82870145       1.94607605      -2.39956539      -0.00080197       0.00096544       0.00087222
Cu       1.97985624       9.84970779       0.01759279       3.02163829       0.00027515      -0.00026845       0.00037718
Al       0.06347100       7.75975557       3.95375075      -2.59279301       0.00075017      -0.00188525       0.00009362
Al       0.06025009       9.74167621       5.93271956      -2.71971784       0.00014352      -0.00067363      -0.00085653
Cu       1.96173723       7.80326110       5.93200927       3.15233101       0.00132626      -0.00063078       0.00087929
Cu       1.93032291       9.90021225       3.93538216       3.07197240       0.00000376       0.00019329       0.00161318
Cu       0.00445949       7.72752728       7.77160622       3.57748391       0.00123802       0.00052900      -0.00008355
Al       0.01924610       9.80086417       9.71764170      -2.23574600      -0.00053978       0.00131756       0.00013463
Al       2.01863954       7.90234999       9.78858993      -2.21227238       0.00056313       0.00150514       0.00000485
Al       1.99739913       9.78970765       7.89771524      -2.12580928       0.00031350       0.00064583      -0.00012640
Al       0.09455631       7.85455665      11.74570828      -2.16014352       0.00001506       0.00068532      -0.00093900
Au       0.17539177       9.79928442      13.69105268       0.01034641      -0.00031698       0.00030895       0.00005292
Cu       1.96644218       7.81515599      13.78594112       3.08407341      -0.00018037      -0.00008073      -0.00027642
Cu       2.02180728       9.93280109      11.72803221       2.94135887       0.00004968       0.00081034       0.00009798
Al       0.09921872      11.86364704      -0.02578733      -3.02813844       0.00121519      -0.00073993       0.00104292
Cu       0.06799079      13.79588655       2.03215160       2.85163294       0.00080160       0.00071037       0.00079319
Au       1.88539870      11.81176111       1.99550627      -1.06765317      -0.00068086      -0.00095841      -0.00090563
Cu       1.98394194      13.85148165      -0.05865096       2.19077220      -0.00052230      -0.00119960      -0.00013695
Cu       0.02474769      11.78654579       3.98154890       2.78352128      -0.00013853      -0.00043062      -0.00056170
Au       0.01145638      13.82082130       6.07683355      -1.62540347      -0.00093976       0.00347137      -0.00104126
Au       1.86137050      11.80676694       5.94802128       0.06217983      -0.00027171      -0.00243737       0.00097304
Au       1.85299472      13.80967148       3.96600995      -0.41209709      -0.00083835       0.00241850      -0.00136422
Cu       0.03933555      11.89537853       7.89328628       3.25412083       0.00014687      -0.00096102       0.00114156
Au      -0.04806868      13.79390420       9.69904432      -2.02832451      -0.00071960       0.00108298       0.00029759
Au       2.02300599      11.87195013       9.82114784      -1.43268733       0.00084542       0.00043179      -0.00061332
Cu       1.91947970      13.82488142       7.91508187       2.64913008       0.00025213       0.00004626      -0.00018987
Au       0.01442320      11.81007852      11.66874606      -0.45919873      -0.00000835      -0.00118781      -0.00004536
Au       0.03557621      13.83679942      13.60487976      -0.69180844      -0.00010707       0.00027623       0.00017399
Au       2.02041331      11.90424446      13.60516128      -1.27515318       0.00011893      -0.00042033       0.00051169
Cu       2.03657088      13.79250524      11.72450627       1.98104113      -0.00008775       0.00086035       0.00058320
Au       0.04197774      15.61106631       0.02223866      -0.53006962      -0.00163419       0.00058574       0.00020904
Al      -0.00992805      17.68145897       1.98939405      -2.50420330      -0.00034633      -0.00035569       0.00030820
Cu       1.90378336      15.65919653       1.92464096       2.71439828       0.00032766       0.00068639       0.00112951
Au       1.96280140      17.56181749       0.05595542      -1.25059040      -0.00157063       0.00088252      -0.00061025
Au       0.00207099      15.78652524       3.96711575      -0.29650520       0.00127259      -0.00176319       0.00010818
Cu      -0.10806583      17.59678281       5.87074430       2.83727567      -0.00067198      -0.00090391      -0.00067470
Cu       1.84856586      15.76763229       5.99596563       2.62230144      -0.00019406       0.00001853      -0.00054827
Al       1.96209330      17.65194421       3.93317981      -2.63711437       0.00104852       0.00043630       0.00039321
Cu       0.00452786      15.72897484       7.90241513       2.20301562      -0.00186518       0.00033041      -0.00103618
Cu      -0.00748332      17.59417505       9.82238593       2.16420928      -0.00158354       0.00082674       0.00010806
Au       1.93269683      15.71580369       9.84122800      -2.44707927      -0.00044006      -0.00003090      -0.00142477
Au       1.84437964      17.64061796       7.83942297      -1.56211279      -0.00052320      -0.00094185      -0.00012782
Al      -0.06619607      15.70431575      11.67987779      -4.11528733      -0.00045340      -0.00076617      -0.00024132
Au      -0.00743159      17.57399222      13.65638250      -1.36459867       0.00123353      -0.00002329      -0.00200760
Cu       1.98152366      15.65802777      13.66524832       1.87754636      -0.00184533      -0.00123261       0.00048169
Cu       1.90483777      17.62239954      11.69561233       2.01067951      -0.00023074       0.00029214       0.00083358
Au       3.86495858      -0.05418017       0.07545557       0.10999491       0.00073585      -0.00052663      -0.00005956
Cu       3.90928370       1.93384833       2.06376355       2.59057395       0.00047881      -0.00011708      -0.00166343
Al       5.80171160      -0.03775590       2.00229087      -3.47838176       0.00047950      -0.00015166       0.00012804
Al       5.79284751       1.94241587       0.03471979      -2.30188435       0.00001699      -0.00055169      -0.00027220
Au       3.92617299      -0.03381817       3.91736384      -1.42732368       0.00010818      -0.00035267      -0.00004081
Cu       3.94379893       1.85634378       5.84298798       2.67706538       0.00163506       0.00017738       0.00032489
Cu       5.80830106      -0.01591958       5.79003372       1.88053443       0.00049207      -0.00122851       0.00001790
Cu       5.81033833       1.88035437       3.95569064       1.75541790       0.00048633       0.00054157       0.00006442
Au       3.85769250      -0.04134797       7.87101937      -0.98072428       0.00030576      -0.00114131       0.00044953
Cu       3.82668160       1.92633563       9.79896990       2.87078841       0.00004458      -0.00115883      -0.00127736
Al       5.83385693       0.00243584       9.84617927      -2.96685251       0.00037807      -0.00172703      -0.00048467
Au       5.87477463       1.84122993       7.76042132      -0.29257607       0.00067303      -0.00045158      -0.00034292
Al       3.87116623      -0.06261523      11.65415615      -3.29709055      -0.00033592      -0.00308066      -0.00023084
Al       3.91993937       1.90405409      13.70431238      -2.31256338       0.00032169      -0.00095464      -0.00010678
Au       5.81775154      -0.10009173      13.64064712       0.26679535      -0.00082196      -0.00124513       0.00088397
Cu       5.86842744       1.95550924      11.77999045       3.12897853      -0.00010035      -0.00195023      -0.00093376
Al       3.94240183       3.85387788       0.07353141      -2.54209991       0.00008602      -0.00023534      -0.00059356
Al       3.91640534       5.77552844       2.01682524      -2.26914333      -0.00031101       0.00014286      -0.00071657
Cu       5.78682594       3.73978417       2.11859202       2.95907897      -0.00049156      -0.00015630       0.00055716
Au       5.78852842       5.90253778      -0.05263669      -0.20945926      -0.00034542       0.00037523      -0.00023255
Cu       3.89486233       3.72274568       3.87428470       2.41541684       0.00106166       0.00107428       0.00016672
Au       3.83449290       5.89766622       5.82929605       0.52563128      -0.00007012       0.00028275       0.00116111
Al       5.78153880       3.86431429       5.82630105      -3.01530986      -0.00066488       0.00036752      -0.00006267
Al       5.81124274       5.87714014       3.90452768      -2.36701757      -0.00044368      -0.00000684       0.00038895
Au       3.89655456       3.80277711       7.87189828       0.12145611      -0.00027777       0.00032701      -0.00094939
Au       3.87411959       5.86004528       9.79786329       1.00227975       0.00038557       0.00051520      -0.00118415
Al       5.87462072       3.81032277       9.80343673      -2.36145399      -0.00018064      -0.00121537      -0.00085111
Al       5.83907994       5.87896053       7.84460498      -2.05301150       0.00061637       0.00089546      -0.00026175
Au       3.91143996       3.82808461      11.75750899      -0.30323663      -0.00014285      -0.00089961      -0.00083523
Cu       3.87262725       5.88245654      13.76731233       2.76932626       0.00009461       0.00039526      -0.00029266
Cu       5.79615393       3.95103015      13.67874581       3.27382894       0.00003250      -0.00053695      -0.00049666
Al       5.79414325       5.90222053      11.79041012      -2.60956367       0.00031541       0.00039685      -0.00001201
Au       3.83588681       7.87631725      -0.06360479      -0.78444479      -0.00074421      -0.00037182       0.00023696
Cu       3.81127948       9.86713254       1.91574399       2.79617953       0.00174049      -0.00041407       0.00070968
Au       5.80073826       7.90440137       1.96378346       0.53744311      -0.00015131      -0.00088145       0.00017292
Au       5.81616958       9.83012214      -0.01582447      -0.32440331       0.00073437       0.00166828       0.00007278
Au       3.75758019       7.96724301       3.92437996       0.48655895      -0.00006888       0.00054507       0.00019403
Al       3.83854745       9.84010483       5.93929427      -2.31466560      -0.00061483       0.00041395       0.00019281
Au       5.81288207       7.87551542       5.88130811       0.91695071       0.00032710       0.00073595      -0.00001837
Al       5.86495889       9.83115394       3.91275212      -2.71827552       0.00048446       0.00015954       0.00025685
Cu       3.90452118       7.82279246       7.81804165       3.45307679       0.00055872       0.00040934       0.00007220
Cu       3.90471145       9.91782887       9.98431738       2.42525332      -0.00009954       0.00120270       0.00093714
Au       5.71958636       7.98851936       9.82455972      -0.03383458      -0.00040570       0.00139240       0.00077756
Al       5.77362909       9.88001496       7.91081405      -2.53683170      -0.00070682       0.00066484       0.00113178
Au       3.86308695       7.92045832      11.88294006      -0.67058704       0.00035363       0.00120413       0.00026359
Al       3.86571853       9.88846850      13.67742544      -3.72564685       0.00000435       0.00188625       0.00079273
Cu       5.84513848       7.88060766      13.73662449       2.72426958       0.00039968       0.00073956      -0.00004673
Cu       5.79685578       9.87792542      11.74952728       2.19765863       0.00048313       0.00133480       0.00086821
Au       3.80001840      11.85404813       0.01459457      -0.60636355       0.00085784       0.00023532       0.00064676
Al       3.85088983      13.85594726       1.99052668      -3.26251909      -0.00024812      -0.00027785       0.00009615
Au       5.84152082      11.77680756       1.96227772       0.49720435      -0.00094473       0.00002087       0.00021852
Au       5.77090805      13.84504459       0.00776263      -0.28684136      -0.00101983       0.00078813       0.00199389
Au       3.84383640      11.75501515       3.92451852       0.35324684       0.00075544      -0.00173239       0.00080863
Al       3.83050569      13.77988336       5.91150911      -2.21550030       0.00080577       0.00024719       0.00068571
Au       5.93636067      11.83416978       5.86384623       0.75694743      -0.00120535      -0.00035081       0.00038232
Au       5.91491961      13.75095429       3.90411834       0.72144784       0.00036687       0.00129654       0.00019129
Al       3.90494103      11.85295329       7.91424989      -2.24078211      -0.00015974      -0.00005986       0.00108165
Cu       3.83455962      13.82978180       9.85589514       2.20457563      -0.00046665      -0.00047092       0.00005167
Cu       5.75367242      11.75479697       9.94413588       2.36412273      -0.00021616       0.00065466       0.00033440
Al       5.80582263      13.75714698       7.95349692      -2.41059193      -0.00106983      -0.00095625      -0.00023558
Cu       3.89335044      11.88396801      11.69533482       1.83312322      -0.00059590       0.00139232      -0.00019738
Cu       3.79850797      13.83137293      13.67130195       1.90446806       0.00022777       0.00178227       0.00095627
Au       5.76577797      11.92176287      13.65318295      -0.56744492       0.00043098       0.00125220       0.00107844
Au       5.70387664      13.82598220      11.67815683      -1.70825565      -0.00058224       0.00125267       0.00069046
Cu       3.79495283      15.68508305       0.00208545       2.12907835       0.00011522      -0.00116180       0.00078124
Cu       3.86413283      17.54869368       1.94370503       2.42232899       0.00049928       0.00030141       0.00061136
Cu       5.82959864      15.78190177       1.99081457       2.88687294       0.00048716      -0.00044919       0.00150393
Au       5.77851888      17.51761480       0.04758965      -0.55441379      -0.00050407       0.00099556       0.00045280
Al       3.86226604      15.77580348       3.96183536      -2.68543618      -0.00196503       0.00085744       0.00131287
Cu       3.91806991      17.69104707       5.93279129       2.90421567      -0.00090530      -0.00106227      -0.00117886
Al       5.82924155      15.69183801       5.84696502      -2.31985274      -0.00052203      -0.00159059      -0.00122775
Cu       5.78783763      17.68970788       3.91823306       2.60683985      -0.00008649      -0.00072897      -0.00002017
Au       3.82698328      15.71846711       7.86760409      -1.00489823      -0.00199324      -0.00028819      -0.00038947
Cu       3.82197709      17.57948156       9.81391037       2.19280724      -0.00169053      -0.00081587      -0.00121118
Cu       5.69282100      15.76425874       9.86060080       2.23355144      -0.00028399      -0.00063047      -0.00006109
Au       5.80538211      17.63745373       7.85044587      -0.26977010      -0.00010516      -0.00083074      -0.00008267
Cu       3.79675040      15.71530984      11.69345551       1.54858463      -0.00007856       0.00035844       0.00074157
Au       3.80993191      17.52760421      13.62081102      -1.13896429       0.00092976       0.00082415       0.00023759
Al       5.77761270      15.64128754      13.66644094      -3.81196208       0.00010704       0.00007497      -0.00041481
Cu       5.78821943      17.51147816      11.71941556       2.48969375      -0.00007576      -0.00123774      -0.00024375
Au       7.82406553      -0.04076189       0.00475789       0.16538181      -0.00010433      -0.00013808      -0.00001051
Au       7.76400947       1.87645680       1.99209475      -0.44390444       0.00075979      -0.00050043      -0.00032827
Cu       9.77456653       0.04286187       1.94351848       2.32670454       0.00048446       0.00063840      -0.00153629
Cu       9.78586279       1.85503150       0.06066330       2.58029998      -0.00040730      -0.00031265      -0.00003511
Cu       7.75024461       0.02911991       3.92381831       2.23378620      -0.00012024      -0.00037054      -0.00013083
Cu       7.75781225       1.86959892       5.78023357       2.50565813      -0.00091106      -0.00009537      -0.00040927
Al       9.79542296      -0.05565871       5.81750721      -2.56335643      -0.00027000       0.00033303       0.00064094
Au       9.76725456       1.86685488       3.85137970      -0.67175301      -0.00135598       0.00063049      -0.00037434
Al       7.83330673      -0.06019194       7.84590434      -2.28892618      -0.00103991      -0.00098418       0.00056716
Cu       7.84312367       1.94239110       9.79448621       3.45457842       0.00038924      -0.00160767      -0.00081930
Al       9.80777089      -0.05051561       9.82181657      -1.74928808      -0.00068428      -0.00066828       0.00021187
Au       9.77195713       1.92694484       7.79436026       0.77357657      -0.00096052      -0.00016309       0.00068473
Au       7.80623383       0.04056689      11.72534465       0.06355235      -0.00037820      -0.00249225      -0.00094839
Au       7.74828998       1.99155777      13.73329511       0.02177996       0.00036273      -0.00080279      -0.00037588
Au       9.85109495       0.04001857      13.76357844       0.09806695       0.00064787      -0.00085621      -0.00122195
Au       9.84413318       2.03035331      11.76846277       0.72966779      -0.00001387      -0.00140923       0.00019599
Al       7.71750173       3.91677722       0.07352745      -2.36853875      -0.00017691      -0.00023067      -0.00033803
Al       7.74614847       5.92446341       1.98008155      -2.51552003      -0.00063688       0.00040738       0.00014264
Al       9.75409466       3.89903016       1.91163327      -2.25628424      -0.00119367      -0.00010114      -0.00133449
Au       9.75166921       6.07064062       0.06806113       0.64626484      -0.00049904      -0.00032944      -0.00062602
Au       7.73639440       3.83607393       3.92158360       0.01345779      -0.00031882       0.00026352      -0.00049395
Au       7.84022999       5.97008312       5.85471387       0.33167485      -0.00025851      -0.00015875       0.00017378
Au       9.79707730       3.90621916       5.80364294      -0.28966245       0.00020988      -0.00022115      -0.00116354
Au       9.78184173       5.96145586       3.89840765      -0.48887599      -0.00128253      -0.00057011       0.00021799
Au       7.81195385       3.84244834       7.77631929       0.73863185      -0.00123157       0.00031477      -0.00086221
Al       7.80410405       5.89551740       9.78017139      -1.30056349      -0.00010214       0.00085579       0.00005559
Al       9.81952829       3.92824755       9.75786731      -2.25708704      -0.00056094       0.00004942      -0.00003268
Au       9.87616525       5.94992598       7.74251819       0.63124571      -0.00070969       0.00052611      -0.00009580
Al       7.77340406       3.91239629      11.74940679      -2.35034852       0.00059328      -0.00131028      -0.00041013
Au       7.76352089       5.93601383      13.73559533       0.18956837       0.00059971      -0.00005799       0.00012546
Au       9.78526073       3.91782490      13.84536832       0.53225202       0.00039512      -0.00035678      -0.00039187
Au       9.82339699       5.83586552      11.77803441       1.36765970       0.00043736       0.00072344      -0.00017749
Cu       7.71775364       7.87663821      -0.02269722       2.97346515      -0.00021267       0.00028026       0.00038929
Al       7.84032562       9.82879250       1.99419775      -3.23076025       0.00009834       0.00040702      -0.00023430
Cu       9.78186265       7.88111733       1.99319143       2.94674055      -0.00032111      -0.00000382       0.00024854
Au       9.72825666       9.75590640       0.04459349      -0.83336072      -0.00001467       0.00008080      -0.00030514
Cu       7.87955755       7.86491470       3.95517798       3.09952736       0.00033773       0.00032054       0.00067115
Au       7.85165166       9.77704022       5.85099519       0.39876685      -0.00092046      -0.00076071       0.00040588
Cu       9.83651106       7.84335053       5.80179614       2.99851708      -0.00031859       0.00002874       0.00085295
Au       9.78982529       9.77560800       3.91458523      -0.88001555      -0.00050085      -0.00055291       0.00080128
Al       7.81266047       7.92702646       7.92125392      -1.88312921      -0.00042843      -0.00006616       0.00108996
Cu       7.72467182       9.92503590       9.91473226       3.03748304      -0.00078915       0.00102898       0.00097973
Al       9.86091979       7.88333216       9.81126056      -1.77209702       0.00000053       0.00115979       0.00079658
Al       9.84510937       9.75321771       7.85078732      -2.21230615       0.00190924       0.00075448       0.00124884
Au       7.73822493       7.94109755      11.71388905       0.14112176       0.00036247       0.00039184      -0.00001017
Au       7.74107448       9.83774947      13.69355144      -0.55284942       0.00019072       0.00155785       0.00019743
Al       9.78535036       7.88404552      13.68664316      -2.63801370      -0.00006487      -0.00039294      -0.00012581
Au       9.81762059       9.90388753      11.73194315       0.53465119       0.00029164      -0.00007196       0.00056158
Au       7.86520414      11.86475875      -0.04967835      -0.82541419       0.00063690       0.00106993      -0.00033612
Al       7.86737167      13.72179018       1.96166675      -2.87662001      -0.00066857      -0.00051055      -0.00148433
Cu       9.82930183      11.78147885       1.99290496       2.67330987       0.00061679      -0.00104834      -0.00130161
Cu       9.76400906      13.68954997      -0.05619554       2.60395590       0.00056085       0.00052003       0.00015333
Cu       7.87314741      11.81381100       3.94933592       3.05676491      -0.00046698      -0.00029884       0.00062871
Cu       7.86483995      13.67060262       5.88651052       3.31177213       0.00046164      -0.00086823      -0.00034628
Al       9.80802248      11.74048625       5.91828386      -2.72802648       0.00154678      -0.00086001       0.00027657
Au       9.82224641      13.65854168       3.91321116      -0.03359791       0.00222861      -0.00072219       0.00115526
Au       7.77670596      11.77183020       7.94910956       0.49416768      -0.00040062       0.00032294       0.00099410
Al       7.75744633      13.80473466       9.85348146      -2.31864303      -0.00040512       0.00014124       0.00052046
Au       9.86093607      11.79965139       9.77191639       0.50737406       0.00102588       0.00099042      -0.00145582
Au       9.83583371      13.78519415       7.82638431       0.48229556       0.00037584      -0.00131350      -0.00011093
Al       7.78295356      11.85983820      11.78198860      -3.06934831      -0.00081068       0.00067640       0.00112103
Cu       7.83684175      13.77491462      13.75856034       2.51940809       0.00084702       0.00033169       0.00025602
Cu       9.76168590      11.74451491      13.79044325       3.06437816       0.00001285       0.00042822      -0.00026439
Al       9.77577562      13.73514918      11.82347546      -2.04609797      -0.00031465      -0.00050702       0.00110658
Au       7.86498988      15.63928241       0.01905746      -0.19610855      -0.00030743       0.00022062      -0.00024808
Au       7.80659019      17.68093549       2.08797172      -0.54486641       0.00053377      -0.00023892       0.00035283
Al       9.84485150      15.67690980       2.00947588      -2.23274908       0.00110187      -0.00021017       0.00022355
Al       9.78702670      17.63655618       0.03283404      -2.52872645      -0.00068482       0.00104510       0.00044137
Al       7.83354571      15.68601990       3.92165106      -2.34020116      -0.00002727      -0.00077638      -0.00055315
Au       7.74619308      17.72478189       5.72796282       0.09367640      -0.00007687      -0.00053268      -0.00071636
Al       9.81719626      15.72935580       5.77987027      -2.15602574       0.00174859       0.00040883       0.00015182
Cu       9.79984482      17.76823220       3.81154426       3.11476581      -0.00056880      -0.00062148       0.00013452
Au       7.77690643      15.67099707       7.77852180       1.06856832      -0.00059020      -0.00134261       0.00076048
Au       7.73784792      17.47246718       9.92693207       0.24728672       0.00047891      -0.00073213      -0.00020604
Al       9.83888368      15.61815976       9.85181945      -1.95114243       0.00069651       0.00042862       0.00061110
Al       9.80243249      17.55257685       7.82780059      -1.54819135       0.00034466       0.00076872      -0.00160127
Cu       7.73278100      15.61784067      11.83511182       2.95264342       0.00008110      -0.00010144       0.00058140
Au       7.80197651      17.54873263      13.62859731      -0.22802926       0.00125085      -0.00082478      -0.00094681
Cu       9.68323028      15.61511470      13.75730631       3.06239197       0.00029774      -0.00025166       0.00154124
Al       9.85851159      17.54294896      11.82060327      -2.05883650       0.00002563      -0.00112435       0.00045582
Cu      11.71549802       0.12004705       0.04030708       2.54316048       0.00022836       0.00049250       0.00034320