399
Lattice="19.59262691714357 -0.0029401591670048664 0.00043227724696582155 -0.0029405439160256983 19.594541571232078 0.002722427805357169 0.0003459403246241731 0.002177382872289726 15.670877927394494" Properties=species:S:1:pos:R:3:energies:R:1:forces:R:3 energy=11.929262250428717 free_energy=11.929262250428717 stress="0.0006106834232910761 4.1447382982400945e-05 -7.04987509858643e-05 4.1447382982400945e-05 0.00020411008817007998 -6.295019744659483e-05 -7.04987509858643e-05 -6.295019744659483e-05 0.0005382783724461137" pbc="T T T"
Au       0.01763639       0.07173447       0.06446096      -1.28396737      -0.00043271      -0.00203613      -0.00245148
Cu      -0.06067056       1.91135127       1.89143917       2.68534762       0.00028579       0.00182720      -0.00043754
Cu       2.04120228      -0.02159877       1.94706020       3.17344834      -0.00131300       0.00158530      -0.00079784
Al       2.05001884       2.00305521       0.11237874      -3.23506911      -0.00558687      -0.00428399       0.00026835
Al      -0.07179521      -0.02001565       3.85467484      -2.46184035       0.00089656       0.00075186      -0.00067628
Al      -0.08521677       1.97081098       5.80060608      -1.88354591      -0.00122128       0.00065202       0.00127472
Al       1.90001534      -0.01474635       5.83052488      -2.18826257       0.00072043       0.00127248       0.00336999
Al       1.89561687       1.89028255       3.81284024      -2.81004009      -0.00149035      -0.00106412       0.00144667
Al      -0.08006723      -0.02279614       7.75662988      -2.47866444       0.00037095      -0.00129590       0.00031534
Au       0.00106015       1.93235878       9.76168196      -0.01943208      -0.00080172      -0.00343054      -0.00178109
Cu       1.87374508      -0.11091484       9.80653245       2.18807939       0.00008710      -0.00234958       0.00113801
Au       1.94749539       1.89633014       7.87471717      -0.59675321      -0.00118565       0.00134226       0.00029420
Cu       0.03618075      -0.11391714      11.74837064       2.01138571       0.00243563      -0.00015828       0.00119512
Cu       0.02862004       1.91106209      13.79155351       2.54101869      -0.00098478       0.00035624      -0.00065422
Au       1.88794725      -0.02938730      13.67638870      -0.28364332       0.00026578      -0.00030780      -0.00150471
Au       1.89920399       1.87128256      11.68748285      -0.87991582       0.00035872      -0.00395694      -0.00160718
Cu       0.02895074       3.83148705       0.08091943       2.20358014       0.00406375      -0.00037550       0.00031070
Cu      -0.06493158       5.77169067       1.84334005       2.73660766      -0.00226846      -0.00061830      -0.00104560
Cu       1.86977134       3.83355683       1.95078777       2.71468175      -0.00213674      -0.00112554       0.00151854
Au       1.98836029       5.71742867       0.06748035      -0.53348599      -0.00683688       0.00007584      -0.00726758
Al      -0.05574079       3.86935290       3.81023427      -2.53052932      -0.00065346       0.00044268       0.00075201
Au       0.00491543       5.76877032       5.91509177       0.14491495      -0.00176456      -0.00025508       0.00013056
Au       2.01152230       3.78096918       5.82555811       0.31272259      -0.00250901       0.00066131      -0.00045366
Al       1.92618526       5.76042166       3.82754125      -2.30358393      -0.00130368       0.00299298       0.00216542
Cu       0.10997910       3.87289478       7.82314277       3.32735886      -0.00245298       0.00043852      -0.00094956
Au       0.05695839       5.83058986       9.71617553       0.58840632      -0.00207530       0.00079041      -0.00134323
Cu       1.95495153       3.83384326       9.78955110       2.88020496       0.00177805       0.00149807       0.00129345
Al       1.97709533       5.86126528       7.82576987      -3.22708712      -0.00178813       0.00088640      -0.00104108
Au       0.02770681       3.90742030      11.79035064       0.28800792      -0.00515794       0.00079575      -0.00463584
Au      -0.00525227       5.83613396      13.85854152       0.35937267       0.00268546      -0.00057892       0.00178918
Au       1.96782476       3.84664269      13.77806202       0.02995130      -0.00703524       0.00561235      -0.00114185
Al       1.98472974       5.87005402      11.80626160      -2.76877587      -0.00163651      -0.00088450      -0.00204588
Al       0.03937355       7.80551194       0.06652269      -2.95979139      -0.00086174       0.00137286      -0.00068525
Au       0.06210440       9.77755736       2.05355215      -0.07407331      -0.00078348      -0.00239092       0.00221754
Al       1.96211291       7.79544582       1.93058205      -2.38461474      -0.00024776       0.00020610       0.00081840
Cu       1.99028526       9.83863434       0.01951088       3.01281796      -0.00081648      -0.00252030       0.00133175
Al       0.06959746       7.75333261       3.94206076      -2.58873958       0.00036400      -0.00081148       0.00222194
Al       0.05840582       9.74306065       5.92225502      -2.71248103      -0.00081828       0.00294157       0.00025387
Cu       1.96263397       7.80252292       5.92695222       3.15172216      -0.00216231       0.00101935      -0.00138093
Cu       1.93764834       9.88968982       3.93080799       3.06320790      -0.00102036      -0.00036615      -0.00098861
Cu       0.00227078       7.73195255       7.76969893       3.57856957      -0.00356777      -0.00066679      -0.00092251
Al       0.01683224       9.79863599       9.71301178      -2.23595335      -0.00231375       0.00165050       0.00099718
Al       2.01548509       7.90753177       9.78740776      -2.21366636      -0.00045392       0.00177772      -0.00008681
Al       1.99580710       9.78869268       7.89094493      -2.12892170       0.00089109       0.00193067      -0.00046414
Al       0.09538161       7.85238877      11.74907706      -2.15626328       0.00112670      -0.00026846      -0.00027525
Au       0.18279386       9.79167913      13.69520992       0.01679362       0.00152624      -0.00050140      -0.00166794
Cu       1.97125603       7.80168950      13.78608859       3.08985388      -0.00071844       0.00024897      -0.00104636
Cu       2.02565178       9.92911705      11.72738370       2.94492551      -0.00045186      -0.00099275      -0.00082517
Al       0.10840354      11.85398017      -0.02737304      -3.02790093      -0.00122244       0.00001751      -0.00111002
Cu       0.08590550      13.78840818       2.02314417       2.85689762       0.00043923      -0.00077799      -0.00033517
Au       1.89029332      11.80573359       1.99838940      -1.07076018      -0.00003281      -0.00048183      -0.00066470
Cu       1.99132274      13.84130540      -0.06306788       2.20552949       0.00323520       0.00064392       0.00046434
Cu       0.02135116      11.79903552       3.98056632       2.76024292       0.00018192       0.00108798      -0.00172552
Au       0.02354398      13.81495372       6.07723744      -1.60443859      -0.00072816       0.00015305      -0.00202965
Au       1.86536355      11.80153668       5.94295370       0.08036008      -0.00086810       0.00013268      -0.00123486
Au       1.85876941      13.81273484       3.96496325      -0.40817481      -0.00016140      -0.00129390       0.00011150
Cu       0.03670047      11.89287414       7.88974921       3.24067439      -0.00083054       0.00078257      -0.00105093
Au      -0.04623249      13.78855239       9.70173079      -2.02471172      -0.00024031       0.00126519       0.00113449
Au       2.02565006      11.86762747       9.81819018      -1.43185753      -0.00036085       0.00006562       0.00018472
Cu       1.92433423      13.82243293       7.91863996       2.64796354      -0.00096272      -0.00160070      -0.00044407
Au       0.01679312      11.79905880      11.66542057      -0.45073659      -0.00100759       0.00040551       0.00145781
Au       0.04150582      13.82633878      13.59241373      -0.67986449       0.00183789      -0.00048032       0.00057887
Au       2.02675388      11.89715790      13.60209002      -1.27811182      -0.00056961      -0.00150016       0.00004512
Cu       2.04111012      13.78769174      11.72119182       1.98254923       0.00090992      -0.00068153       0.00139949
Au       0.06721870      15.61023607      -0.00615137      -0.53559234       0.00150025      -0.00005811       0.00055046
Al      -0.00384564      17.68913798       1.98347744      -2.48285860       0.00125539       0.00230335       0.00051045
Cu       1.90510941      15.66122946       1.92043828       2.71196838       0.00075232       0.00117747       0.00086886
Au       1.97229706      17.57214337       0.05830440      -1.23490925       0.00111193       0.00263410      -0.00216268
Au       0.00650011      15.79101528       3.96710381      -0.32598109       0.00006515       0.00010566      -0.00060076
Cu      -0.09825496      17.59961693       5.87732554       2.87154037      -0.00064211      -0.00081229       0.00154953
Cu       1.85107797      15.77182984       5.99744599       2.61618103      -0.00033223      -0.00121747       0.00036806
Al       1.96682204      17.65639705       3.92592522      -2.62467312       0.00212158       0.00103968      -0.00052778
Cu       0.01670563      15.72743229       7.91491890       2.23633378      -0.00036132      -0.00051205       0.00012897
Cu       0.00098132      17.60258809       9.83315118       2.16932254      -0.00203108      -0.00324363      -0.00091109
Au       1.93685400      15.71456044       9.84623289      -2.45518336       0.00039605      -0.00093739      -0.00035860
Au       1.84621501      17.64273478       7.84591411      -1.57278920      -0.00025108      -0.00077537      -0.00140608
Al      -0.06494721      15.70629084      11.68046805      -4.11131002       0.00058503      -0.00061805       0.00077512
Au       0.00343886      17.58580319      13.65442588      -1.36674241       0.00280919       0.00118325      -0.00142380
Cu       1.98784598      15.65678338      13.65770439       1.87492118       0.00033772       0.00062734       0.00054647
Cu       1.91067126      17.62675746      11.69778811       2.00846337       0.00040945       0.00114505      -0.00153938
Au       3.87461493      -0.04798847       0.07449071       0.12136532       0.00146595       0.00320047      -0.00164732
Cu       3.89297467       1.97053779       2.10058170       2.37864645      -0.00041483      -0.00019342       0.00497640
Al       5.79035434      -0.00025686       1.98956589      -3.45703814      -0.00227866      -0.00159421      -0.00066406
Al       5.65244781       2.13206053       0.04899202      -2.32285699       0.00453494      -0.00765996      -0.00064608
Au       3.92721957      -0.02580426       3.91926401      -1.43485732      -0.00251954      -0.00064610       0.00184902
Cu       3.94099689       1.85724428       5.85267337       2.66804727       0.00082925       0.00240085       0.00085928
Cu       5.80768765      -0.01636315       5.79255109       1.89020136       0.00071453       0.00329979      -0.00149328
Cu       5.81102380       1.88635774       3.97108524       1.75253680      -0.00178237      -0.00004040       0.00170564
Au       3.85905473      -0.04247162       7.86783684      -0.99709637       0.00062658       0.00048041       0.00190978
Cu       3.82765325       1.92111364       9.79066253       2.88905974       0.00243157       0.00020503      -0.00455358
Al       5.83510571       0.00037441       9.84313930      -2.97382579      -0.00072854      -0.00236687       0.00019501
Au       5.87699783       1.84214355       7.76098969      -0.30094640      -0.00028811      -0.00119533       0.00203271
Al       3.87597289      -0.05928627      11.65459459      -3.30615125      -0.00053347      -0.00129828      -0.00163968
Al       3.92035583       1.92940425      13.68652059      -2.26987259       0.00072951      -0.00382142      -0.00169622
Au       5.80669045      -0.07697364      13.65444065       0.25412227      -0.00279415      -0.00429306       0.00100767
Cu       5.86636612       1.95999445      11.76448034       3.13816456      -0.00028176       0.00034853      -0.00187375
Al       3.91026071       5.65950352       1.96974404      -2.30612937       0.00013074       0.00419625       0.00813710
Cu       5.78295784       3.75162121       2.15002461       2.86511254       0.00654922       0.00142225       0.00435031
Au       5.72609096       5.79238890      -0.05236688      -0.39171163       0.00440102       0.00643165       0.00183533
Cu       3.89166721       3.72048646       3.93156189       2.45469009       0.00048678      -0.00270118      -0.00090369
Au       3.83308225       5.89379538       5.84067439       0.50355085      -0.00104525       0.00063791       0.00198324
Al       5.79212168       3.86976476       5.83821461      -3.03109235      -0.00191139      -0.00081091       0.00307887
Al       5.79538394       5.87244308       3.90026106      -2.39780350       0.00026660       0.00003930      -0.00084124
Au       3.89486841       3.80308031       7.87232819       0.10385855      -0.00183186       0.00090003       0.00085462
Au       3.87379351       5.87223659       9.78525294       1.00215263       0.00116116      -0.00261015      -0.00144532
Al       5.88107627       3.81547363       9.79223821      -2.36227364       0.00215570       0.00123855      -0.00156061
Al       5.84457559       5.88349005       7.84493296      -2.05143738      -0.00171701       0.00172540      -0.00049446
Au       3.90858587       3.83298260      11.71751447      -0.34023170       0.00256153       0.00142252      -0.00035087
Cu       3.87328226       5.87424321      13.74698656       2.63072130      -0.00149584       0.00151024      -0.00234950
Cu       5.77331695       3.96394378      13.65202992       3.14090631       0.00002235      -0.00119273      -0.00413468
Al       5.79720089       5.90493509      11.77431478      -2.61735753       0.00064959       0.00164914       0.00002711
Au       3.84119340       7.84921410      -0.07256392      -0.82057865       0.00285275       0.00230371       0.00358022
Cu       3.81226724       9.85524588       1.91504147       2.77932241      -0.00291253      -0.00183978      -0.00004023
Au       5.77811892       7.85961996       1.93970236       0.52337954      -0.00142730       0.00165263       0.00012400
Au       5.80879751       9.82090367      -0.00880423      -0.31995098       0.00006843      -0.00048161      -0.00080324
Au       3.75750397       7.94216064       3.91125479       0.48485074       0.00046919       0.00128832       0.00095981
Al       3.83905872       9.83117174       5.92800775      -2.32632819      -0.00024125      -0.00135270      -0.00011505
Au       5.81025338       7.87182792       5.87716890       0.92079128       0.00163536      -0.00105720      -0.00176707
Al       5.85830937       9.81096378       3.89543725      -2.71874911       0.00161153      -0.00082688       0.00032535
Cu       3.90446745       7.82667013       7.81675565       3.46226003      -0.00005655       0.00179928       0.00038079
Cu       3.90611830       9.91651841       9.98098911       2.42715757      -0.00044429      -0.00003654      -0.00005758
Au       5.72426829       7.99419172       9.82201106      -0.03994421       0.00041561      -0.00080661      -0.00185946
Al       5.77370364       9.87888156       7.90448226      -2.53427618      -0.00103693       0.00019084      -0.00049137
Au       3.86667846       7.91904903      11.88139651      -0.67521425      -0.00032153       0.00120189      -0.00137837
Al       3.86932844       9.87986779      13.68058007      -3.71974442      -0.00034484      -0.00089011       0.00106115
Cu       5.83671932       7.85157547      13.75451063       2.69987671      -0.00287196       0.00027505       0.00139609
Cu       5.79603248       9.87650567      11.75166162       2.21112225       0.00033720       0.00055629      -0.00101809
Au       3.80242662      11.84927636       0.01647063      -0.60828931       0.00111453      -0.00379054       0.00101680
Al       3.85170263      13.85572409       1.99164520      -3.26247685      -0.00046123      -0.00184508      -0.00342539
Au       5.84346177      11.77572390       1.96331116       0.49569011      -0.00018132      -0.00391698       0.00023535
Au       5.76969997      13.84364173       0.00873033      -0.28651272      -0.00167842      -0.00078994      -0.00160586
Au       3.84796593      11.75253727       3.92285995       0.36121298      -0.00017507      -0.00224047       0.00095892
Al       3.83247045      13.78057379       5.91145103      -2.21331012       0.00020239      -0.00245309      -0.00136528
Au       5.93710312      11.82716953       5.85638549       0.74768807       0.00041897      -0.00075982      -0.00094629
Au       5.91686748      13.75194579       3.90493972       0.71748058       0.00081829       0.00027451      -0.00284071
Al       3.90698837      11.84850281       7.90920114      -2.23863335      -0.00027504       0.00077954      -0.00086262
Cu       3.83781573      13.82729217       9.85414523       2.20046091       0.00242583      -0.00074129       0.00136101
Cu       5.75522411      11.75204040       9.94153079       2.36039251      -0.00017497       0.00128570       0.00024494
Al       5.80678122      13.75655666       7.95024608      -2.40677809       0.00115450      -0.00182866      -0.00041250
Cu       3.89682461      11.88014889      11.69358933       1.83079501      -0.00016565      -0.00166616      -0.00033998
Cu       3.80086862      13.82814842      13.66919509       1.90659485       0.00005299      -0.00072468       0.00132554
Au       5.76502438      11.91889347      13.65572938      -0.57010107       0.00017086      -0.00127631      -0.00012008
Au       5.70527197      13.82333666      11.67837050      -1.70546348       0.00101490       0.00224813       0.00320401
Cu       3.79252833      15.68389172       0.00093872       2.12611268       0.00228539       0.00156180       0.00121720
Cu       3.86890960      17.55621705       1.94554663       2.42869378       0.00085008       0.00298465      -0.00040771
Cu       5.82891272      15.78003040       1.99007693       2.89340087      -0.00064844       0.00271452       0.00140973
Au       5.77543149      17.51782431       0.04989642      -0.57056694      -0.00242478       0.00629393      -0.00188331
Al       3.86418245      15.77901498       3.96147308      -2.68228127       0.00102594      -0.00102808      -0.00105226
Cu       3.91849181      17.69151308       5.93113615       2.90190256      -0.00110238      -0.00098715      -0.00080358
Al       5.83099228      15.69531066       5.84505657      -2.31332396       0.00105850      -0.00325292      -0.00084268
Cu       5.78669161      17.69920899       3.90867555       2.58836358      -0.00003652       0.00337367       0.00113135
Au       3.82823940      15.71913207       7.86848743      -1.00476234      -0.00210084      -0.00008204       0.00159595
Cu       3.82376091      17.58133304       9.81469641       2.19431413      -0.00067470      -0.00235384       0.00229813
Cu       5.69431302      15.76597924       9.86354411       2.22733288      -0.00066219      -0.00142758       0.00028039
Au       5.80685882      17.63684272       7.85014050      -0.26538834      -0.00015454      -0.00267324      -0.00039697
Cu       3.80091762      15.71565920      11.69473458       1.55201663       0.00103974      -0.00115871      -0.00173408
Au       3.81374488      17.53070488      13.62134918      -1.14353159       0.00141126       0.00217149      -0.00037980
Al       5.77674292      15.63952024      13.66730036      -3.81473393      -0.00070796       0.00064380      -0.00041053
Cu       5.78831626      17.51762452      11.72502379       2.49297665      -0.00001490      -0.00104416      -0.00186911
Au       7.78279146       0.00040242       0.00539190       0.13439345       0.00036790      -0.00273738      -0.00138049
Au       7.74238796       1.90097526       1.98276120      -0.44955336       0.00160737      -0.00009606       0.00422854
Cu       9.75554452       0.05565437       1.93735788       2.31639130      -0.00092286       0.00045076      -0.00144517
Cu       9.78421227       1.86294390       0.06356329       2.58517702      -0.00081381      -0.00035781       0.00018953
Cu       7.74247076       0.03851517       3.91503157       2.21208839      -0.00145957       0.00122555       0.00234429
Cu       7.75927550       1.87099045       5.78372968       2.51807624      -0.00190815       0.00192932      -0.00130717
Al       9.78606291      -0.04510006       5.81709105      -2.56448487       0.00235149      -0.00112630      -0.00036097
Au       9.75836693       1.87147679       3.84503363      -0.67697532      -0.00151224       0.00010995       0.00105630
Al       7.83272244      -0.05977988       7.84685860      -2.28793212      -0.00111613       0.00015524       0.00120035
Cu       7.84103663       1.94288065       9.79561471       3.45709454       0.00062189       0.00050883      -0.00002949
Al       9.80005254      -0.04749016       9.83019661      -1.75295121       0.00167583      -0.00001549      -0.00148898
Au       9.77130777       1.92973543       7.79930092       0.77257459       0.00236626      -0.00001579       0.00071810
Au       7.79446936       0.04736409      11.73589708       0.05072099       0.00171616       0.00033899      -0.00194899
Au       7.71515249       2.00987502      13.74704580       0.00511113      -0.00100171       0.00116564       0.00039085
Au       9.83152202       0.05368049      13.77384940       0.08970892      -0.00058727       0.00016658      -0.00193726
Au       9.83205408       2.03090336      11.77587224       0.73255389      -0.00139044       0.00099652      -0.00094462
Al       7.75183504       3.92317518       0.07374204      -2.32166779       0.00010213      -0.00092227      -0.00039165
Al       7.73815857       5.91694176       1.97114609      -2.52189800      -0.00087858      -0.00092764       0.00000486
Al       9.76247073       3.90254857       1.91743626      -2.25836884      -0.00120323      -0.00203679       0.00054612
Au       9.75578348       6.07178448       0.06787510       0.65223770      -0.00095220       0.00002777       0.00118036
Au       7.74177441       3.84291844       3.93038086       0.00541675       0.00177229       0.00084000       0.00081788
Au       7.84196575       5.97382384       5.85247919       0.32322024       0.00075987       0.00107511       0.00129659
Au       9.80294793       3.90760255       5.80550330      -0.28924513      -0.00133821       0.00047293      -0.00267434
Au       9.78392355       5.96185114       3.89665353      -0.49783866      -0.00048374       0.00102471       0.00076227
Au       7.81763154       3.84623948       7.77649448       0.74771343       0.00066197       0.00138164       0.00097961
Al       7.80832128       5.90060232       9.77781236      -1.30010316       0.00172366       0.00019495      -0.00001072
Al       9.81728703       3.93086377       9.76321646      -2.25563815       0.00229989      -0.00014894       0.00188174
Au       9.87770931       5.95275730       7.74236783       0.63418161       0.00273231       0.00077026      -0.00277408
Al       7.77005345       3.91625162      11.75035809      -2.35621330      -0.00051993      -0.00012477      -0.00045271
Au       7.73893002       5.92663155      13.75453214       0.12468953       0.00286716      -0.00018752      -0.00095482
Au       9.78553859       3.91840885      13.84139154       0.53305393      -0.00049776      -0.00112615      -0.00248578
Au       9.81461419       5.83979528      11.78502832       1.37457197      -0.00188722      -0.00054725      -0.00084286
Cu       7.69076359       7.84765524      -0.02235790       2.94180642      -0.00094909       0.00168885       0.00173382
Al       7.82819057       9.80603977       1.98855553      -3.21900024       0.00090808      -0.00231662       0.00189685
Cu       9.78379633       7.87673258       1.99463910       2.95844413       0.00020311      -0.00086587      -0.00082206
Au       9.72121782       9.74615122       0.04658986      -0.81331274      -0.00180472      -0.00124922       0.00098269
Cu       7.87534702       7.85675503       3.94779818       3.09480878       0.00232097      -0.00056206       0.00082413
Au       7.84825730       9.77243440       5.84185530       0.39294651       0.00022147       0.00088270      -0.00003790
Cu       9.83661598       7.84535108       5.79776937       3.00149110       0.00258463      -0.00081633       0.00061856
Au       9.78809031       9.77458759       3.90893568      -0.88805339       0.00130872       0.00068861       0.00061218
Al       7.81356185       7.92988139       7.91705498      -1.88275436       0.00138019       0.00076200      -0.00057475
Cu       7.72404822       9.92216733       9.91530071       3.03731385       0.00073413       0.00189061       0.00166428
Al       9.85709919       7.88644869       9.81196002      -1.77278464       0.00315510       0.00055635       0.00005259
Al       9.84561450       9.75294614       7.84606663      -2.20740913       0.00243420       0.00296594      -0.00052312
Au       7.73321874       7.93701146      11.72228971       0.15616647      -0.00023371      -0.00048525      -0.00067622
Au       7.73030759       9.82839587      13.70110418      -0.53234758       0.00116880      -0.00093046      -0.00005021
Al       9.77519301       7.87955904      13.69025354      -2.62965826       0.00066909      -0.00117850      -0.00056007
Au       9.81201295       9.90130085      11.73489196       0.53598694       0.00084225       0.00146286       0.00236615
Au       7.86203430      11.85870927      -0.04752861      -0.82831819      -0.00019808      -0.00150196      -0.00021688
Al       7.86693861      13.72179791       1.95974465      -2.87782845      -0.00104488      -0.00057527      -0.00165338
Cu       9.82239279      11.77422452       1.99125501       2.66553690       0.00079553       0.00076218      -0.00101597
Cu       9.75913418      13.68558466      -0.05921776       2.60162134       0.00044659       0.00074249       0.00056745
Cu       7.87025154      11.80697429       3.94201198       3.04783511      -0.00063086      -0.00043590       0.00061429
Cu       7.86287688      13.66914927       5.88526564       3.30553062       0.00185682       0.00048396      -0.00222006
Al       9.80482515      11.73740912       5.91456191      -2.72256404       0.00252578       0.00040784       0.00006393
Au       9.81806601      13.65762662       3.91012511      -0.02935130      -0.00064752       0.00103740      -0.00062199
Au       7.77471840      11.76855286       7.94708996       0.49411672       0.00314367       0.00066625      -0.00078813
Al       7.75677048      13.80365554       9.85436305      -2.31385792       0.00021153      -0.00007078       0.00257023
Au       9.86024233      11.79493515       9.77052126       0.50689461       0.00120311       0.00097444      -0.00003065
Au       9.83206522      13.78235090       7.82806173       0.47938599       0.00334878      -0.00089626       0.00020630
Al       7.78127254      11.85519946      11.78427336      -3.07057724      -0.00031905       0.00041757       0.00121894
Cu       7.83584937      13.77146401      13.75945518       2.51567815      -0.00259876      -0.00045979      -0.00038552
Cu       9.75648653      11.73705261      13.79166442       3.06079476       0.00016769       0.00121764       0.00005748
Al       9.77454482      13.73193547      11.82318774      -2.03646841      -0.00123457      -0.00044920       0.00028028
Au       7.86186310      15.63908839       0.01764140      -0.19467260       0.00077313      -0.00002549       0.00068032
Au       7.79297140      17.69401270       2.07877322      -0.56456152       0.00001811       0.00388466       0.00227892
Al       9.83879220      15.68292534       2.00601030      -2.22323685      -0.00146145       0.00160728      -0.00084506
Al       9.76268553      17.65629490       0.03162352      -2.53096895      -0.00190481       0.00356145       0.00177427
Al       7.83292943      15.69169219       3.91638681      -2.33682908      -0.00128808       0.00233266      -0.00234621
Au       7.74425177      17.72956244       5.72311340       0.09251045       0.00112667       0.00054535      -0.00129692
Al       9.81401557      15.72973899       5.78111831      -2.15172549       0.00155864      -0.00106658      -0.00113479
Cu       9.78631026      17.77859143       3.80572786       3.10799773       0.00270824      -0.00025091      -0.00020512
Au       7.77697643      15.67259164       7.78020517       1.07131135       0.00074194      -0.00149832      -0.00037565
Au       7.73650169      17.47592778       9.93149270       0.24867714       0.00027721      -0.00217619       0.00008222
Al       9.83624490      15.62069100       9.85637699      -1.95119101       0.00061022      -0.00263614       0.00104745
Al       9.79738459      17.55815900       7.83144384      -1.54552213       0.00177649      -0.00341082       0.00083050
Cu       7.73137157      15.62146070      11.83956407       2.93770756       0.00011793      -0.00069781       0.00205692
Au       7.78898485      17.55959225      13.63606014      -0.21702454      -0.00123089       0.00158790      -0.00255844
Cu       9.67491739      15.61902377      13.75546336       3.05403140      -0.00229462      -0.00008652       0.00077050
Al       9.85067266      17.55039045      11.83013919      -2.06181451       0.00106236      -0.00160119       0.00143060
Cu      11.71324807       0.12569806       0.04219670       2.54084659       0.00027478       0.00033733       0.00049010
Cu      11.77366388       1.90472883       1.91363067       2.33517496      -0.00033773       0.00127885       0.00071810