399
Lattice="19.59262691714357 -0.0029401591670048664 0.00043227724696582155 -0.0029405439160256983 19.594541571232078 0.002722427805357169 0.0003459403246241731 0.002177382872289726 15.670877927394494" Properties=species:S:1:pos:R:3:energies:R:1:forces:R:3 energy=11.916167969562771 free_energy=11.916167969562771 stress="0.0003226675486997507 0.00021501626056998063 -4.3011450824432715e-05 0.00021501626056998063 2.29106280962567e-05 -5.564958827329562e-05 -4.3011450824432715e-05 -5.564958827329562e-05 0.0008863870791898892" pbc="T T T"
Au      -0.01667386       0.04157236       0.06564367      -1.22157881      -0.00008741      -0.00040941       0.00013341
Cu      -0.08335552       1.90034043       1.89720671       2.72602477      -0.00069840      -0.00056973       0.00018382
Cu       2.03903624      -0.04388061       1.95348389       3.20481667      -0.00007653      -0.00174219       0.00051931
Al       1.95923690       1.93545984       0.11942922      -3.31711436       0.00165547      -0.00091572       0.00094403
Al      -0.07056299      -0.02078561       3.85680716      -2.46422304       0.00070729      -0.00141690      -0.00028852
Al      -0.07734510       1.97699464       5.79227896      -1.87627231       0.00194338      -0.00005337       0.00105014
Al       1.90876419      -0.00418241       5.82780789      -2.17897189       0.00013569      -0.00058617      -0.00013375
Al       1.90902104       1.89242498       3.78691366      -2.80257920      -0.00084593       0.00119173       0.00081048
Al      -0.07504986      -0.02215669       7.75096979      -2.47644578       0.00011392       0.00091840      -0.00017249
Au       0.00303810       1.92836321       9.75760018      -0.01961559       0.00088781      -0.00104484      -0.00107359
Cu       1.87735246      -0.10801259       9.80564469       2.18584480       0.00009345      -0.00226051      -0.00055140
Au       1.95237734       1.90345699       7.87265890      -0.59075591      -0.00006855      -0.00206181      -0.00059645
Cu       0.03282178      -0.11791623      11.74509696       2.01053291      -0.00070150      -0.00352364       0.00042095
Cu       0.00532910       1.88867996      13.78682129       2.57000743       0.00019742      -0.00101071       0.00302354
Au       1.87908295      -0.03758199      13.67480508      -0.28171500       0.00015792      -0.00000325       0.00076336
Au       1.89499830       1.86988927      11.69200946      -0.87936962      -0.00137818      -0.00341145       0.00210655
Cu       0.02575856       3.84352734       0.09818886       2.23686233      -0.00183764      -0.00192146       0.00050169
Cu      -0.08665872       5.78907154       1.85967811       2.76496788      -0.00257488      -0.00040637       0.00105254
Cu       1.88662769       3.84474979       1.93641747       2.87833212      -0.00017148      -0.00103806      -0.00033644
Au       1.93545559       5.77854992       0.07975424      -0.36588390       0.00040941       0.00023952      -0.00052491
Al      -0.05181205       3.86737375       3.79705466      -2.52346356       0.00087254      -0.00085065       0.00149209
Au       0.00493919       5.76007934       5.90824995       0.15123200      -0.00045711       0.00026534      -0.00048035
Au       2.02833408       3.77833216       5.80677218       0.33483516      -0.00096664       0.00003225      -0.00127416
Al       1.91910978       5.76757979       3.82406049      -2.29569417      -0.00054099       0.00013979       0.00013059
Cu       0.11589463       3.87117544       7.81901633       3.32441473       0.00107982       0.00009483      -0.00040526
Au       0.06037006       5.83070851       9.71222715       0.58688252       0.00026084       0.00075897      -0.00011584
Cu       1.95902194       3.83327052       9.79835546       2.86467119      -0.00142154      -0.00160292      -0.00088323
Al       1.97878398       5.85650251       7.81665672      -3.22505545      -0.00142527       0.00051780       0.00072105
Au       0.01219301       3.90595112      11.77722352       0.30398548       0.00024310       0.00091721      -0.00000103
Au      -0.03119830       5.84940628      13.84739410       0.38822143      -0.00079099       0.00030062       0.00084339
Au       1.91517110       3.83470112      13.78789930       0.18077353      -0.00077654      -0.00052884       0.00004955
Al       1.98179446       5.86689292      11.82055614      -2.76160139      -0.00275185      -0.00110215       0.00112526
Al       0.01297719       7.82600365       0.07118852      -2.96130864      -0.00170089       0.00051482      -0.00132451
Au       0.04585000       9.78909370       2.06082246      -0.05886702      -0.00007371       0.00073248      -0.00095813
Al       1.94650030       7.83088618       1.95013582      -2.40223572      -0.00027843       0.00162309       0.00028490
Cu       1.98093803       9.84585922       0.02309541       3.02170264      -0.00037923       0.00114071      -0.00075408
Al       0.05700679       7.75882562       3.95093469      -2.59245616      -0.00114634       0.00042188      -0.00067454
Al       0.05267320       9.74895631       5.92445196      -2.71313233      -0.00055033       0.00081612      -0.00050482
Cu       1.95990902       7.80470722       5.92357505       3.13920618       0.00103817      -0.00012504       0.00069660
Cu       1.93010874       9.89815192       3.93780694       3.07460393       0.00138336       0.00166108      -0.00185347
Cu       0.00223073       7.72931706       7.76250529       3.56953957       0.00043429       0.00041147      -0.00064456
Al       0.01557992       9.80062143       9.70918563      -2.23527083       0.00064340       0.00172206       0.00296149
Al       2.01421440       7.90507437       9.78360024      -2.21136760       0.00113407       0.00172181      -0.00051062
Al       1.99401146       9.79019256       7.89001920      -2.12774799      -0.00027009      -0.00021782      -0.00065504
Al       0.09512314       7.85538040      11.74557255      -2.15810792      -0.00070981       0.00185382       0.00001749
Au       0.17579265       9.79665740      13.69409069       0.01427344       0.00000994       0.00194925      -0.00023054
Cu       1.96380477       7.81259129      13.79377919       3.08377581      -0.00071063       0.00053578       0.00121697
Cu       2.01969041       9.93526299      11.72680255       2.94783367      -0.00014160      -0.00067585      -0.00003189
Al       0.10247290      11.85831383      -0.02497368      -3.02859790      -0.00055772      -0.00016060      -0.00037153
Cu       0.08410592      13.78768126       2.02570620       2.85209648      -0.00050599       0.00033936       0.00073282
Au       1.88966443      11.80539650       1.99991643      -1.07503235      -0.00001125       0.00191347      -0.00048931
Cu       1.99327415      13.84219260      -0.06194445       2.20220655       0.00094884       0.00073670       0.00168194
Cu       0.01553786      11.80468426       3.98196537       2.75672185       0.00068042       0.00209553      -0.00099200
Au       0.02066757      13.81546809       6.07763763      -1.60576423       0.00049336       0.00085881      -0.00226707
Au       1.86379774      11.80424721       5.94344048       0.07504009       0.00033681       0.00154333      -0.00025990
Au       1.86042873      13.81210274       3.96535562      -0.40756933       0.00088240       0.00107319      -0.00079442
Cu       0.03337841      11.89456080       7.88867012       3.24609682      -0.00015268       0.00088993      -0.00084409
Au      -0.04853595      13.79142363       9.69893309      -2.02312425       0.00008232      -0.00086181      -0.00040346
Au       2.02175603      11.87276404       9.81685379      -1.43849599      -0.00019401       0.00056609       0.00082581
Cu       1.92373863      13.82504255       7.91727707       2.64891019       0.00016021      -0.00052755      -0.00202612
Au       0.01407998      11.80259838      11.66474696      -0.45720145       0.00083708       0.00202074      -0.00095831
Au       0.04007318      13.82864795      13.59232962      -0.67871422      -0.00068304       0.00116069       0.00148140
Au       2.02254961      11.90036985      13.60532856      -1.27752106       0.00122819       0.00125944       0.00117580
Cu       2.04079360      13.79040112      11.72237786       1.97811069       0.00082426      -0.00039264      -0.00081646
Au       0.06631771      15.60783888      -0.00400732      -0.52883442       0.00057628      -0.00024937       0.00174697
Al      -0.00776415      17.67967949       1.98995297      -2.48865182       0.00078932      -0.00051005      -0.00008262
Cu       1.90696405      15.66061313       1.92129015       2.70532762       0.00047153       0.00091188       0.00203243
Au       1.97133936      17.57027095       0.05689090      -1.24172083      -0.00007753      -0.00159950       0.00239375
Au       0.00597524      15.78767042       3.97053810      -0.32126671       0.00030351       0.00090149      -0.00117100
Cu      -0.09512301      17.59867896       5.87837488       2.86741853      -0.00016221       0.00083667      -0.00061170
Cu       1.85290483      15.76954625       6.00008368       2.61415508       0.00017207       0.00082587      -0.00238266
Al       1.96985727      17.65433757       3.93310504      -2.63128285       0.00168237       0.00064479       0.00047996
Cu       0.01872732      15.73140037       7.91383843       2.23061336       0.00093298      -0.00038537      -0.00211600
Cu       0.00324151      17.60279780       9.82873428       2.16705075      -0.00029139      -0.00138837      -0.00129551
Au       1.93886070      15.71652126       9.84374358      -2.45681605      -0.00151447      -0.00065889       0.00008266
Au       1.85399535      17.64750348       7.84322360      -1.56888779      -0.00127116       0.00116437      -0.00130704
Al      -0.06521242      15.70551899      11.67646393      -4.10585535       0.00192206      -0.00132940       0.00018826
Au      -0.00278694      17.57858610      13.65135677      -1.36318671      -0.00042296      -0.00194962       0.00128228
Cu       1.98920177      15.65795442      13.65800878       1.87034632       0.00036666       0.00015688       0.00194461
Cu       1.91174546      17.62777777      11.69530028       2.00355820       0.00128255      -0.00123973       0.00099202
Au       3.87198509      -0.04430318       0.07836388       0.11535217      -0.00028332      -0.00077380       0.00026302
Cu       3.91479843       1.94124627       2.06487053       2.58024423       0.00048817       0.00022678      -0.00016529
Al       5.80837864      -0.02668563       2.00165726      -3.47253763      -0.00003188       0.00076114       0.00062214
Al       5.80530774       1.95556262       0.02555402      -2.30527349       0.00143742       0.00151213       0.00084334
Au       3.93536872      -0.02526427       3.92001371      -1.42336342      -0.00056305      -0.00013571      -0.00122082
Cu       3.95298898       1.86497102       5.84633501       2.66274111       0.00143048      -0.00051999      -0.00092818
Cu       5.81674813      -0.00435396       5.79692821       1.87551678      -0.00126829       0.00042742      -0.00111670
Cu       5.81953908       1.89141322       3.95829299       1.74963447      -0.00199465      -0.00063334       0.00214666
Au       3.86707583      -0.03140579       7.87075872      -0.98569318      -0.00109605      -0.00181998      -0.00151672
Cu       3.82848009       1.93271371       9.79868471       2.87278080      -0.00169974      -0.00242800       0.00185440
Al       5.84043134       0.01178114       9.84791067      -2.94866859      -0.00344510      -0.00099323       0.00016008
Au       5.88492564       1.85716580       7.77121652      -0.27879219      -0.00084722      -0.00102007       0.00003737
Al       3.87908922      -0.05462441      11.65542198      -3.28591898      -0.00169889      -0.00131230      -0.00065058
Al       3.92187419       1.90791856      13.70519804      -2.30505018      -0.00061430      -0.00099156       0.00028547
Au       5.82333237      -0.09141844      13.64323146       0.27461264      -0.00038200       0.00017821       0.00035915
Cu       5.88498492       1.96992016      11.78620872       3.09761515       0.00184263       0.00137126       0.00041596
Al       3.94196595       3.85471820       0.07002588      -2.53913218       0.00197356       0.00125009       0.00067968
Al       3.92202507       5.77392145       2.01316236      -2.27116523       0.00209281       0.00077045      -0.00141334
Cu       5.79525497       3.74597089       2.11016282       2.95345085      -0.00006826       0.00057777       0.00079296
Au       5.80106262       5.89554608      -0.06621898      -0.23963177      -0.00017836       0.00323271      -0.00353376
Cu       3.90444033       3.72479358       3.88027646       2.39638481      -0.00156237       0.00076286      -0.00182966
Au       3.83817402       5.89595854       5.83018218       0.51777204      -0.00048945       0.00101043      -0.00064367
Al       5.79641503       3.87423519       5.84010068      -3.00934155      -0.00066930      -0.00138928      -0.00213788
Al       5.81597088       5.87806973       3.90430136      -2.37271794       0.00200557       0.00065173       0.00100101
Au       3.89742283       3.80731693       7.87165473       0.11409727      -0.00150104      -0.00063520      -0.00112261
Au       3.86193735       5.86033115       9.79539514       1.00035471      -0.00062833       0.00090712       0.00221296
Al       5.87342642       3.82017469       9.81816767      -2.36320168       0.00358730       0.00061423       0.00183622
Al       5.84513721       5.88257146       7.86032311      -2.05299000       0.00168885       0.00016783       0.00112943
Au       3.90548043       3.82804093      11.76089480      -0.28910952      -0.00203656      -0.00126676       0.00018049
Cu       3.86412065       5.88213884      13.77402244       2.78473085       0.00038312      -0.00109014      -0.00003680
Cu       5.80428152       3.95284395      13.67203987       3.28037233      -0.00077048      -0.00006700      -0.00197160
Al       5.76485721       5.90840319      11.79846753      -2.59378646      -0.00225733      -0.00185101      -0.00117288
Au       3.83816668       7.87111325      -0.05829998      -0.79005491       0.00135118      -0.00146302      -0.00110233
Cu       3.81859597       9.86263992       1.91737719       2.80138821      -0.00018758       0.00017971       0.00072209
Au       5.80892590       7.89765338       1.95809458       0.54567556       0.00047075      -0.00119406       0.00056665
Au       5.82049509       9.82622206      -0.01593409      -0.32259192       0.00013134      -0.00001793      -0.00235447
Au       3.76418314       7.96540447       3.92249610       0.48715803       0.00028792       0.00057095      -0.00010073
Al       3.84191681       9.83801014       5.93593568      -2.31728369       0.00000114       0.00013392       0.00057474
Au       5.81571426       7.87290715       5.88556435       0.91441048      -0.00064650      -0.00022876       0.00033941
Al       5.87623305       9.82424031       3.91093282      -2.72454759      -0.00098932      -0.00068605       0.00161609
Cu       3.89888909       7.82108905       7.81051365       3.45958924      -0.00101765       0.00041244       0.00173934
Cu       3.89707742       9.92447731       9.97890423       2.43820220      -0.00064480       0.00000129      -0.00005607
Au       5.70027445       7.99330947       9.82109948      -0.02988065      -0.00095255      -0.00149315      -0.00188226
Al       5.77330492       9.88089854       7.90787995      -2.53562525      -0.00259854       0.00111950       0.00194369
Au       3.85154454       7.92738038      11.88425240      -0.65972979      -0.00102073      -0.00030144       0.00091689
Al       3.86353195       9.88738623      13.68383537      -3.72403292      -0.00072177      -0.00067037       0.00001266
Cu       5.83722516       7.87921387      13.73841003       2.75178736      -0.00039509       0.00017175       0.00081066
Cu       5.78223371       9.89099875      11.74775630       2.21101684      -0.00313221       0.00103990      -0.00031561
Au       3.80419903      11.84883867       0.01847693      -0.60938056      -0.00091252       0.00014297      -0.00021379
Al       3.85479271      13.85387670       1.99186716      -3.25611397       0.00086654       0.00132105      -0.00041317
Au       5.84969688      11.77196029       1.96344794       0.49196439      -0.00044881      -0.00158221      -0.00045750
Au       5.77413060      13.84108145       0.01113669      -0.28116130       0.00039398       0.00175362       0.00104243
Au       3.85068049      11.75117349       3.92423194       0.35563681       0.00192751      -0.00026434      -0.00108378
Al       3.83464978      13.77997664       5.91006449      -2.21100258       0.00076320       0.00038037      -0.00041557
Au       5.94189873      11.82980846       5.86078620       0.75263834      -0.00005525      -0.00080202      -0.00106653
Au       5.92080556      13.74987163       3.90360460       0.72144630       0.00048467      -0.00116764       0.00004429
Al       3.90425445      11.85253772       7.90925587      -2.24464275       0.00139622      -0.00009683      -0.00129178
Cu       3.83768296      13.82855854       9.85411666       2.20057325       0.00067611       0.00050817       0.00014034
Cu       5.74976266      11.75989721       9.93892909       2.36494109      -0.00016426      -0.00033952       0.00086925
Al       5.80688085      13.75598903       7.94891813      -2.40862074       0.00047903       0.00054163      -0.00087474
Cu       3.89272967      11.88437377      11.69518851       1.82216015      -0.00033142      -0.00007161       0.00076556
Cu       3.80154499      13.82755761      13.67164743       1.90601323      -0.00067396       0.00121679       0.00082647
Au       5.76761807      11.92041343      13.65686879      -0.57320069      -0.00093709       0.00069043      -0.00069334
Au       5.70330525      13.82547860      11.68022421      -1.71398658       0.00037349       0.00080631       0.00044712
Cu       3.79674679      15.68519574       0.00227202       2.11989966       0.00073711       0.00125885       0.00192391
Cu       3.87076478      17.55500687       1.94554404       2.42288089       0.00017821      -0.00081182       0.00048058
Cu       5.83399213      15.78389633       1.99216063       2.88213243      -0.00007917       0.00047341      -0.00064334
Au       5.78049367      17.52238993       0.04998767      -0.55523623       0.00054837      -0.00032080      -0.00024719
Al       3.86796921      15.77862519       3.96165474      -2.67430623      -0.00032640      -0.00063423      -0.00008885
Cu       3.92485130      17.69759632       5.93404794       2.89986618      -0.00037235      -0.00034351       0.00009451
Al       5.83280117      15.69524657       5.84512416      -2.31330597       0.00099903       0.00081862       0.00079798
Cu       5.79324280      17.69796929       3.92121391       2.60465839       0.00102868      -0.00087402      -0.00104983
Au       3.83098491      15.72101335       7.86766657      -1.00625637       0.00297807       0.00083255      -0.00212632
Cu       3.82736852      17.58433530       9.81398004       2.18518472      -0.00047914       0.00104649       0.00032703
Cu       5.69357793      15.76400057       9.86029437       2.23136804      -0.00092698      -0.00070272      -0.00038456
Au       5.81103530      17.64256641       7.85154124      -0.27331106      -0.00102352       0.00127949      -0.00083846
Cu       3.80120674      15.71727284      11.69427451       1.55079979      -0.00062222      -0.00017370       0.00090238
Au       3.81536912      17.53343746      13.62140145      -1.13312330       0.00035306      -0.00024630       0.00112234
Al       5.77661513      15.64024227      13.67058906      -3.81203179       0.00009819      -0.00033590       0.00101536
Cu       5.78979317      17.51300046      11.72026866       2.48493840      -0.00000603      -0.00043696      -0.00004900
Au       7.82738283      -0.03282704       0.00171688       0.16471483      -0.00107023       0.00091608       0.00049242
Au       7.76898896       1.88929506       1.98456156      -0.44027578       0.00035620       0.00158225      -0.00001676
Cu       9.77390353       0.05917110       1.93588713       2.32714027       0.00034527       0.00108302      -0.00072852
Cu       9.78552027       1.87296188       0.03953663       2.58462639       0.00032828       0.00061884      -0.00090309
Cu       7.75071395       0.04304076       3.92809727       2.21815985       0.00214026      -0.00016396      -0.00043805
Cu       7.76323842       1.88853406       5.79548031       2.51378081      -0.00111085       0.00003101      -0.00132203
Al       9.78575843      -0.02418369       5.83806394      -2.55766542      -0.00023913      -0.00045283      -0.00112162
Au       9.76335859       1.87794370       3.85392716      -0.66141033       0.00035463       0.00095445      -0.00064652
Al       7.83950645      -0.04434845       7.85738066      -2.27438059      -0.00207878      -0.00126909      -0.00025318
Cu       7.85387116       1.96254247       9.81714517       3.42789002      -0.00034525       0.00213391       0.00207105
Al       9.80804576      -0.05657058       9.82804815      -1.74888142      -0.00194618      -0.00013752      -0.00113347
Au       9.77961662       1.96248156       7.84340620       0.74629038       0.00049940       0.00343215       0.00131835
Au       7.80557267       0.03473496      11.72779792       0.06643780      -0.00130406      -0.00012731       0.00188908
Au       7.76958186       2.00366712      13.72514097      -0.00152909      -0.00232176      -0.00217158      -0.00354963
Au       9.85377847       0.03149359      13.76411960       0.10305522       0.00079448       0.00000802      -0.00053949
Au       9.84679742       2.01278607      11.76630423       0.74218743      -0.00087911      -0.00075448      -0.00408647
Al       7.74847268       3.92688107       0.04654310      -2.36387425      -0.00095853      -0.00052198       0.00078798
Al       7.75323093       5.92174801       1.97124840      -2.51877384      -0.00150849      -0.00058937       0.00278462
Al       9.75798185       3.90551012       1.91010983      -2.24807758      -0.00042448      -0.00041756       0.00221907
Au       9.75355331       6.07188294       0.04557293       0.63237627       0.00252113       0.00217347      -0.00037980
Au       7.73921216       3.84312148       3.92219525       0.01045731      -0.00078609       0.00065774       0.00025148
Au       7.84269953       5.97191901       5.86390217       0.33001837      -0.00004846       0.00098689      -0.00085589
Au       9.79288422       3.90763847       5.81738562      -0.30396109       0.00372108       0.00149421       0.00105097
Au       9.78164755       5.95948742       3.90476402      -0.49428970       0.00022524      -0.00046938      -0.00044178
Au       7.82683393       3.86480224       7.81548780       0.72975388       0.00175545      -0.00030986       0.00220811
Al       7.80934081       5.91304795       9.83103012      -1.01136703      -0.00119085       0.00173642      -0.00264873
Al       9.83471552       4.01735159       9.86505071      -1.94423996       0.00022480      -0.00567303      -0.00080706
Au       9.87523772       5.95306439       7.75494774       0.64016942      -0.00038482      -0.00033214      -0.00023745
Al       7.80290038       3.95676520      11.76060644      -2.05084369      -0.00182863      -0.00329021      -0.00281287
Au       7.76925938       5.94056855      13.70521858       0.28146338      -0.00692855       0.00191838       0.00236052
Au       9.79429048       3.96151506      13.76992242       0.64014425       0.00275757      -0.00270838       0.00037075
Cu       7.71998721       7.86409451      -0.04320737       2.97856372      -0.00118253       0.00079388      -0.00301301
Al       7.85100250       9.81829204       1.98256501      -3.23120365       0.00087450       0.00049954       0.00069470
Cu       9.78170161       7.86973916       1.98873971       2.95634778       0.00089758       0.00013138       0.00079466
Au       9.72779675       9.71779504       0.01354102      -0.85892819       0.00115899      -0.00216059      -0.00285664
Cu       7.88287066       7.86035959       3.95643956       3.10251114      -0.00138810      -0.00035281      -0.00015014
Au       7.85826489       9.76768996       5.85980284       0.39463303      -0.00105223       0.00051198      -0.00132394
Cu       9.84054133       7.84128363       5.80859193       2.99491170       0.00119794      -0.00046141      -0.00096356
Au       9.79115240       9.76787047       3.91414935      -0.88141633      -0.00255853      -0.00055619       0.00004667
Al       7.81175061       7.92215967       7.93813824      -1.87453296       0.00170347      -0.00236279       0.00210879
Cu       7.71649354       9.92873022       9.91289678       3.04856473      -0.00040153      -0.00119436       0.00055538
Al       9.84979984       7.82077170       9.87282928      -1.45323090      -0.00281753       0.00115886      -0.00185784
Al       9.84477922       9.72974043       7.88289332      -2.22619736       0.00059546      -0.00197213       0.00262628
Au       7.69259455       7.96255119      11.71453257       0.16539164       0.00010681      -0.00087047      -0.00312069
Au       7.74294152       9.83475398      13.68975098      -0.55437345       0.00211775       0.00124165       0.00423016
Al       9.77800022       7.81888736      13.59295461      -2.28408299       0.00006997       0.00495728       0.00235437
Au       9.80906617       9.90609467      11.71849154       0.53060572       0.00063229       0.00060546       0.00130282
Au       7.87439311      11.85496434      -0.04915319      -0.83550113      -0.00087276      -0.00098470      -0.00176386
Al       7.87263425      13.71685269       1.96113356      -2.87354724      -0.00016058      -0.00013452       0.00027733
Cu       9.82941759      11.76737926       1.98648812       2.66689704      -0.00147582       0.00067309       0.00024864
Cu       9.76435509      13.68533756      -0.05793090       2.60442249      -0.00102475       0.00054580       0.00137226
Cu       7.87784792      11.80415370       3.94812266       3.05212713      -0.00012376       0.00022755       0.00034757
Cu       7.86924751      13.66723754       5.88303194       3.30892135       0.00002871      -0.00100100      -0.00000876
Al       9.81017992      11.72644042       5.92319892      -2.72701628      -0.00112401      -0.00111044       0.00109645
Au       9.82306855      13.64927849       3.91167581      -0.03716118      -0.00200463      -0.00083996       0.00145536
Au       7.77895967      11.77036201       7.94738102       0.48872618      -0.00131196      -0.00023007       0.00098680
Al       7.75484061      13.80634654       9.85153373      -2.32100759      -0.00117923      -0.00159445       0.00095725
Au       9.86131753      11.80635173       9.76957234       0.51922912      -0.00085436       0.00030385       0.00011276
Au       9.83525084      13.78400783       7.82267510       0.47510123      -0.00184582      -0.00066259       0.00064437
Al       7.77847428      11.86093647      11.77976304      -3.07351183      -0.00097417       0.00293742      -0.00000391
Cu       7.83633532      13.77208987      13.76235076       2.51437824      -0.00011343      -0.00111843       0.00060105
Cu       9.75959684      11.73949371      13.78268440       3.07355361      -0.00017669      -0.00001051      -0.00080907
Al       9.77338650      13.73476658      11.82323862      -2.04538737      -0.00089316       0.00018403       0.00071565
Au       7.86436432      15.63857617       0.02389012      -0.19229158       0.00012674       0.00100754      -0.00113708
Au       7.80842747      17.68979238       2.08972910      -0.53992214       0.00201090      -0.00007467       0.00009294
Al       9.84410386      15.67895621       2.01457232      -2.21669318      -0.00059481      -0.00077090      -0.00079521
Al       9.78280840      17.63577110       0.03293406      -2.51778404      -0.00109841       0.00379454       0.00031163
Al       7.83643935      15.69002030       3.92214560      -2.33232755       0.00101887       0.00019908      -0.00069275
Au       7.75160091      17.73404957       5.73147722       0.08309187      -0.00087280       0.00008956       0.00015130
Al       9.81937915      15.72856058       5.77782157      -2.15915203       0.00004688      -0.00147832       0.00085255
Cu       9.79223812      17.79071061       3.81804471       3.10340566       0.00128801      -0.00074638       0.00022093
Au       7.77713495      15.67030902       7.77531736       1.07165091       0.00058535       0.00025128       0.00080630
Au       7.73837321      17.46984610       9.92723949       0.24543946      -0.00139670       0.00031843      -0.00089134
Al       9.83762695      15.61551781       9.85188470      -1.95258824       0.00102095      -0.00063560       0.00011743
Al       9.79784442      17.55451686       7.82975849      -1.54852178       0.00045800       0.00287449       0.00022403
Cu       7.73001794      15.61632909      11.83704769       2.95277524       0.00208667      -0.00030444       0.00031485
Au       7.79901194      17.54638754      13.63173400      -0.22832684       0.00028018       0.00104023       0.00011237
Cu       9.67931634      15.61250420      13.75834232       3.06593852      -0.00061052      -0.00055994      -0.00095996
Al       9.85825224      17.53695347      11.82464906      -2.06353675       0.00023392       0.00125238      -0.00044696
Cu      11.71286047       0.12730281       0.04217615       2.53104405      -0.00061026       0.00111581      -0.00094389
Cu      11.76813315       1.91479965       1.90761358       2.32181767       0.00147062      -0.00111337       0.00025914