399
Lattice="19.59262691714357 -0.0029401591670048664 0.00043227724696582155 -0.0029405439160256983 19.594541571232078 0.002722427805357169 0.0003459403246241731 0.002177382872289726 15.670877927394494" Properties=species:S:1:pos:R:3:energies:R:1:forces:R:3 energy=11.967840468520347 free_energy=11.967840468520347 stress="0.00024408159765971203 0.00014350611018814686 -0.00012927259172704406 0.00014350611018814686 0.00015351649099492947 -0.00014998765578199639 -0.00012927259172704406 -0.00014998765578199639 0.0008850243730454581" pbc="T T T"
Au      -0.02715053       0.03931276       0.06701619      -1.21897208      -0.00016384      -0.00055289       0.00192915
Cu      -0.08936702       1.89886266       1.90077738       2.73376104      -0.00135889       0.00142220       0.00216598
Cu       2.03650074      -0.04570724       1.94852762       3.20965429       0.00214167      -0.00084340      -0.00334888
Al       1.93760266       1.93567383       0.12005568      -3.32631646      -0.00041670      -0.00172281       0.00073599
Al      -0.06594364      -0.02561975       3.85866686      -2.46627057      -0.00071162      -0.00023814       0.00133729
Al      -0.06923145       1.97314897       5.79460792      -1.87650223      -0.00087352       0.00036632       0.00002116
Al       1.91624161      -0.01016360       5.82543193      -2.18685981      -0.00094329      -0.00178050       0.00006377
Al       1.91011316       1.88831995       3.78384906      -2.80189047      -0.00060734       0.00067740      -0.00001724
Al      -0.07250931      -0.02498374       7.74706432      -2.48486490      -0.00015743      -0.00003893       0.00053832
Au      -0.00387712       1.93227951       9.74681958      -0.00898939      -0.00192868      -0.00004851      -0.00257515
Cu       1.86265940      -0.11434289       9.80220720       2.19849417       0.00064265       0.00132425      -0.00013330
Au       1.95294218       1.90250859       7.86863519      -0.58672659      -0.00071702       0.00015873      -0.00012954
Cu       0.02288602      -0.12815261      11.73997180       2.01416895      -0.00043888      -0.00022019       0.00016622
Cu      -0.00213617       1.89181958      13.78794630       2.57933356      -0.00093591       0.00046757       0.00094890
Au       1.85753484      -0.04633032      13.67259603      -0.28223878      -0.00311095       0.00192271      -0.00097327
Au       1.87295897       1.86644358      11.68789116      -0.87126830       0.00286608       0.00188552       0.00143078
Cu       0.01576782       3.85080181       0.09902089       2.23957588      -0.00125674       0.00053586       0.00218227
Cu      -0.08998122       5.79451609       1.86489178       2.76268610      -0.00076001       0.00045563      -0.00112587
Cu       1.87550402       3.84557008       1.93697032       2.88680193      -0.00070098       0.00043516       0.00040142
Au       1.92880348       5.78446192       0.08235910      -0.36362024       0.00039849       0.00091026       0.00121061
Al      -0.04851789       3.86683436       3.80416149      -2.52492391      -0.00097757      -0.00130962       0.00105026
Au       0.01151718       5.76596053       5.91287263       0.14051175      -0.00336173       0.00067820       0.00016454
Au       2.03567509       3.77883984       5.80500224       0.33704112      -0.00062146      -0.00107167       0.00094085
Al       1.91791090       5.76971647       3.82509666      -2.29210324      -0.00060525       0.00077495       0.00045037
Cu       0.11437095       3.87422649       7.81254305       3.31433464       0.00018458      -0.00007440      -0.00012805
Au       0.05621495       5.83803429       9.70572373       0.58416954       0.00038023       0.00026031      -0.00022465
Cu       1.94927104       3.83579027       9.79029821       2.86883755      -0.00040406       0.00166728       0.00023733
Al       1.98453941       5.85987114       7.81965290      -3.22009563       0.00115225      -0.00164817       0.00063361
Au       0.00735212       3.91450549      11.77066902       0.31058422      -0.00186589      -0.00105040      -0.00224726
Au      -0.03615241       5.86043477      13.84453857       0.39408239      -0.00245498       0.00191010       0.00203688
Au       1.90033168       3.84715157      13.78877971       0.18018134       0.00269506      -0.00528000      -0.00111084
Al       1.97275186       5.87851464      11.81522092      -2.75533896      -0.00087383       0.00009378      -0.00090231
Al       0.00987470       7.83259330       0.07176416      -2.95591481       0.00090660      -0.00189582       0.00073227
Au       0.04914824       9.79548606       2.06283224      -0.05896613      -0.00027981       0.00182118       0.00068201
Al       1.94485740       7.83524787       1.95263312      -2.40198257      -0.00032695      -0.00073400      -0.00308997
Cu       1.98402758       9.84764248       0.02376253       3.01670294       0.00116129       0.00034054      -0.00204186
Al       0.06060499       7.76634995       3.95643297      -2.59308459       0.00077944       0.00117647       0.00048156
Al       0.05632488       9.75570454       5.92752423      -2.71450819       0.00267565      -0.00150779       0.00027780
Cu       1.96582915       7.80830971       5.92715064       3.14143305      -0.00123463       0.00296967       0.00018979
Cu       1.93575689       9.90263738       3.93980090       3.07074563       0.00095002       0.00134777      -0.00179918
Cu       0.00430939       7.73555840       7.76211654       3.57111781      -0.00046552      -0.00025581       0.00157496
Al       0.01709443       9.80473203       9.70736654      -2.23412271       0.00021160       0.00015336       0.00192781
Al       2.01730267       7.90815144       9.78482860      -2.21056367       0.00222458      -0.00149268      -0.00100692
Al       1.99967796       9.79231247       7.89128175      -2.12537361       0.00421355      -0.00058997       0.00039676
Al       0.09080430       7.86528669      11.74204877      -2.15292702       0.00043917      -0.00162290       0.00110076
Au       0.17768756       9.80182764      13.69399111       0.01701579      -0.00024695       0.00168601      -0.00064782
Cu       1.96587370       7.81948477      13.79271459       3.06479473      -0.00234084      -0.00157460       0.00080043
Cu       2.02680448       9.93227069      11.72672929       2.93697809      -0.00058493       0.00000654       0.00184028
Al       0.10872012      11.86352596      -0.02420584      -3.02724530      -0.00022798      -0.00058297      -0.00122125
Cu       0.09039006      13.78904023       2.02962976       2.85556338       0.00071559      -0.00046217      -0.00055762
Au       1.89659676      11.80918533       2.00101614      -1.07523241      -0.00025524       0.00064674       0.00028534
Cu       2.00365765      13.84662855      -0.06144008       2.19899200      -0.00013135       0.00060646      -0.00114675
Cu       0.02235684      11.81066239       3.98394954       2.75018197       0.00161587       0.00067191      -0.00163046
Au       0.02704617      13.81450161       6.07472974      -1.60836011       0.00024404      -0.00123985      -0.00127601
Au       1.87294376      11.80725969       5.94558823       0.07166966       0.00137983       0.00014708      -0.00067219
Au       1.87215280      13.81712752       3.96594832      -0.41008988       0.00050971      -0.00079399      -0.00094342
Cu       0.03665571      11.89482378       7.88757203       3.24759725       0.00217011       0.00051863      -0.00070920
Au      -0.04477870      13.78697828       9.69743517      -2.02025505       0.00116855       0.00162862       0.00099349
Au       2.02990838      11.87098121       9.81765702      -1.42518122       0.00142864       0.00014162      -0.00038616
Cu       1.93026382      13.82271402       7.91591574       2.64729145       0.00140612       0.00138954       0.00163637
Au       0.01946720      11.80250877      11.66406999      -0.45252997      -0.00058933       0.00020283       0.00271045
Au       0.04613923      13.82729997      13.59388480      -0.67172852      -0.00000912      -0.00065217      -0.00035254
Au       2.03040860      11.89969392      13.60431444      -1.27574252      -0.00101706       0.00016184      -0.00079726
Cu       2.04701052      13.78896167      11.72239103       1.98057133      -0.00101766      -0.00055166       0.00199028
Au       0.06956574      15.60435188      -0.00041397      -0.52495676      -0.00186517      -0.00313991       0.00034712
Al      -0.00671530      17.67760313       1.99048916      -2.49230788      -0.00071141      -0.00111097       0.00018476
Cu       1.91437845      15.66348030       1.92102510       2.71068790       0.00072613       0.00006762       0.00016620
Au       1.96881387      17.57091394       0.05636784      -1.24873174       0.00122194       0.00206764       0.00219787
Au       0.01199076      15.78665625       3.96935427      -0.32875475      -0.00096216      -0.00121686       0.00076855
Cu      -0.09018783      17.59556804       5.87679989       2.87356456       0.00143800      -0.00169744       0.00036144
Cu       1.86153149      15.76815746       5.99713297       2.61611567       0.00011559       0.00030654       0.00013616
Al       1.97725045      17.65198983       3.92907965      -2.62757949      -0.00009676       0.00054626      -0.00042671
Cu       0.02149017      15.72526927       7.91074807       2.23817919       0.00107510       0.00101337       0.00118458
Cu       0.00015369      17.59312706       9.82553557       2.16487547       0.00007939       0.00026113      -0.00033997
Au       1.94042509      15.71077025       9.84273731      -2.46127366       0.00052909       0.00136855      -0.00226985
Au       1.85321965      17.64101750       7.84124045      -1.57300213       0.00145200      -0.00131702       0.00113564
Al      -0.06382690      15.69804860      11.67561887      -4.11259539       0.00028834      -0.00066005       0.00045592
Au      -0.01285161      17.56753714      13.65200722      -1.36300132      -0.00117971       0.00096021      -0.00083825
Cu       1.99215015      15.65930287      13.65991586       1.86803708      -0.00023616      -0.00107885      -0.00126906
Cu       1.90299750      17.61755830      11.69584792       2.01814317      -0.00132841      -0.00045098       0.00150246
Au       3.86536943      -0.03404939       0.06569808       0.10969082      -0.00246140      -0.00080401       0.00481396
Cu       3.91776405       1.93315549       2.04508883       2.57008800      -0.00021105       0.00045496      -0.00076177
Al       5.81245596      -0.01151420       1.97081481      -3.46440417      -0.00240662      -0.00101481      -0.00064800
Al       5.82977350       1.95008522      -0.06946389      -1.98723295       0.00234497       0.00220810       0.00044829
Au       3.93928411      -0.02852385       3.90387640      -1.44298117       0.00016178      -0.00322406       0.00075164
Cu       3.94839349       1.85535419       5.84129060       2.67040232      -0.00269934       0.00080642      -0.00020808
Cu       5.81018992      -0.00925989       5.78980295       1.87054137      -0.00112315      -0.00322598       0.00079061
Cu       5.81359340       1.88369458       3.94752622       1.76614050      -0.00040235      -0.00056019       0.00045598
Au       3.86128204      -0.03915959       7.88086658      -0.98109505      -0.00182126       0.00108774       0.00004429
Cu       3.81689281       1.92601574       9.80181540       2.86261629      -0.00047926       0.00007017       0.00036555
Al       5.84706874       0.01057661       9.87202650      -2.97759011      -0.00009602       0.00580339      -0.00005176
Au       5.87139140       1.84247256       7.76924297      -0.28955019       0.00089661       0.00140505      -0.00090436
Al       3.84918597      -0.06639006      11.65103440      -3.33884104       0.00003654       0.00220828      -0.00207648
Al       3.86208391       1.90279873      13.69982386      -2.28274934      -0.00283624       0.00439631      -0.00178855
Au       5.81141455      -0.07009665      13.62387204       0.30182682       0.00387299      -0.00163365       0.00063626
Cu       5.79231514       1.94864407      11.78784216       3.10999736       0.00218100       0.00047482       0.00161807
Al       3.92257797       3.83982208       0.08124100      -2.57906266      -0.00019316      -0.00187184      -0.00080467
Al       3.91572501       5.77173657       2.01459815      -2.26690590       0.00090434      -0.00049025      -0.00146627
Cu       5.79689676       3.72729808       2.08390358       2.91886546       0.00188108      -0.00190982       0.00058442
Au       5.78924819       5.87781821      -0.05097510      -0.23710782       0.00141183      -0.00138813      -0.00008873
Cu       3.89946676       3.71701094       3.86235741       2.40248466       0.00055528      -0.00212568      -0.00137360
Au       3.83922495       5.89737949       5.82953767       0.53310652      -0.00226251      -0.00066864       0.00064296
Al       5.77807386       3.86190641       5.82586686      -3.01619838      -0.00179057       0.00086467       0.00109219
Al       5.81432283       5.86617574       3.89644466      -2.36390191       0.00022386       0.00122641      -0.00245892
Au       3.89969710       3.80491293       7.87780954       0.12104600      -0.00217481       0.00066020       0.00153442
Au       3.87115728       5.86369018       9.79679152       0.99743386      -0.00064287       0.00059751      -0.00076886
Al       5.88248199       3.80225452       9.83059146      -2.35922898       0.00124046      -0.00099307      -0.00279573
Al       5.84484196       5.87362679       7.85442772      -2.05191460       0.00074905      -0.00048491       0.00058386
Au       3.87465743       3.83616530      11.74679506      -0.36132781      -0.00169192      -0.00234531       0.00488959
Cu       3.85367900       5.89330322      13.77447538       2.74062818      -0.00061350       0.00050536      -0.00002185
Cu       5.70707504       3.98337537      13.67854787       3.26391392       0.00017240       0.00052626       0.00000095
Al       5.79325598       5.89079450      11.79370614      -2.60633032       0.00237316      -0.00105306      -0.00012229
Au       3.84005780       7.87028259      -0.05284334      -0.78882751       0.00147880      -0.00058356      -0.00005982
Cu       3.82170605       9.86309563       1.92010333       2.79927896       0.00055085       0.00121987      -0.00166462
Au       5.81537948       7.89031720       1.96276256       0.52020004      -0.00187484      -0.00100492      -0.00204256
Au       5.82064593       9.82395353      -0.01046363      -0.32086003       0.00085937       0.00025797       0.00052017
Au       3.76563824       7.96489721       3.92181257       0.48536010       0.00090682       0.00112092      -0.00035478
Al       3.84904505       9.83845985       5.93808435      -2.31515156       0.00068902       0.00090187      -0.00096592
Au       5.81787925       7.86822104       5.88090426       0.91311229      -0.00017664      -0.00110664      -0.00050615
Al       5.87394087       9.82584866       3.91072454      -2.71990906       0.00069175       0.00135782       0.00054867
Cu       3.90881048       7.82305682       7.81744255       3.44890791       0.00041775      -0.00204695       0.00142508
Cu       3.90917702       9.91576416       9.98125282       2.42260906      -0.00015536       0.00063242       0.00145639
Au       5.72196098       7.98335417       9.82886422      -0.03676446       0.00031972      -0.00055635      -0.00056759
Al       5.78014204       9.87410752       7.91145627      -2.53769106       0.00198555      -0.00072513      -0.00082176
Au       3.86395230       7.91873763      11.88320582      -0.67051195      -0.00007709      -0.00181338       0.00029050
Al       3.86971141       9.88096347      13.68298919      -3.72139571       0.00014417       0.00077210      -0.00097694
Cu       5.84274204       7.86844107      13.74420099       2.71363388       0.00129094      -0.00021418       0.00035755
Cu       5.79673922       9.87488318      11.75093303       2.20210229       0.00074194      -0.00042748       0.00053497
Au       3.80797353      11.84851483       0.01769205      -0.60884905       0.00077175      -0.00066417       0.00145317
Al       3.86290856      13.86006893       1.98940070      -3.25474857       0.00115339      -0.00081042      -0.00054375
Au       5.84918083      11.77945888       1.96344233       0.49556462       0.00141420      -0.00120096      -0.00080121
Au       5.77375672      13.84659140       0.00163037      -0.29411795       0.00266239       0.00033999      -0.00049420
Au       3.85663935      11.75617432       3.92618186       0.35766809       0.00193142      -0.00033588       0.00006112
Al       3.84434620      13.78465029       5.91203170      -2.21506412       0.00217999       0.00071490      -0.00022480
Au       5.94746738      11.83437912       5.86204362       0.74631309       0.00151302      -0.00020771      -0.00088354
Au       5.92681573      13.75859828       3.90384088       0.73077546       0.00113164       0.00141857       0.00000680
Al       3.91512927      11.85253712       7.91258241      -2.24154650       0.00253806      -0.00084065      -0.00014930
Cu       3.84627414      13.83061433       9.85646054       2.20502468      -0.00109970      -0.00031984       0.00071934
Cu       5.75784263      11.75422769       9.94490370       2.36237631       0.00053484      -0.00175839       0.00140262
Al       5.81479818      13.76099191       7.95540502      -2.40703528       0.00152237      -0.00028642       0.00042370
Cu       3.89947824      11.88114685      11.69419970       1.82943562      -0.00062626      -0.00146835      -0.00044319
Cu       3.80658432      13.83134035      13.67070704       1.90699515      -0.00112911       0.00041889       0.00075088
Au       5.76715879      11.91662432      13.65415376      -0.57067996       0.00018401      -0.00109195       0.00004351
Au       5.70807478      13.82760716      11.68440514      -1.70908800       0.00150426       0.00000535      -0.00165114
Cu       3.80633105      15.69714493       0.00116296       2.11035200       0.00131930      -0.00110137      -0.00018198
Cu       3.87905186      17.56296826       1.93276249       2.40707859      -0.00080920       0.00236077      -0.00036661
Cu       5.83697681      15.79870695       1.96792840       2.85581612       0.00207095       0.00142637      -0.00178559
Au       5.79320405      17.55163860       0.02705115      -0.51502851       0.00088288      -0.00075020       0.00348585
Al       3.88325110      15.78596546       3.95637056      -2.66854713       0.00093495      -0.00143876      -0.00002124
Cu       3.93313962      17.69702855       5.93317338       2.88375495      -0.00166270       0.00197825       0.00143113
Al       5.84280213      15.70004751       5.85244740      -2.31196033       0.00135838      -0.00030655       0.00082153
Cu       5.80293388      17.70514991       3.90091990       2.58790527       0.00102141       0.00125432       0.00043347
Au       3.83866136      15.72160541       7.87155224      -0.99320897      -0.00174761       0.00049620       0.00139554
Cu       3.82481362      17.57997930       9.81707253       2.20317534       0.00016571       0.00052256      -0.00035893
Cu       5.71007215      15.77535541       9.87109509       2.21632071      -0.00016286      -0.00016036       0.00058436
Au       5.81071541      17.64821100       7.86662986      -0.26934062       0.00175012       0.00083211       0.00097967
Cu       3.80309312      15.71924166      11.69531253       1.54492039       0.00136177       0.00003665       0.00160723
Au       3.81307766      17.54077085      13.62216578      -1.13453162      -0.00052475      -0.00236734      -0.00185784
Al       5.78010379      15.65211875      13.66628319      -3.82121493       0.00100145       0.00040949      -0.00053338
Cu       5.78027342      17.52729007      11.72903580       2.52532333       0.00017667       0.00057359       0.00000410
Au       7.83712750       0.02958571      -0.05828385       0.25029134       0.00236472      -0.00314723      -0.00439448
Au       7.76702735       1.87807063       1.97883885      -0.43616533      -0.00064502       0.00359206       0.00095071
Cu       9.77110031       0.04221132       1.93979321       2.34840082      -0.00009715      -0.00036736      -0.00034135
Cu       9.86089551       1.84549072       0.10403635       2.52889234      -0.00073472      -0.00094938      -0.00010932
Cu       7.74733778       0.03201619       3.91834197       2.21196402      -0.00306220      -0.00031463       0.00105992
Cu       7.75328900       1.87128633       5.77964012       2.50672126      -0.00071029       0.00089062       0.00065556
Al       9.78552049      -0.04404289       5.81823559      -2.56664888       0.00026480      -0.00108201      -0.00057344
Au       9.76553117       1.87049524       3.84316449      -0.66179974       0.00134682       0.00052508       0.00055321
Al       7.83172106      -0.05123129       7.85008282      -2.28986211      -0.00036042       0.00097817       0.00155206
Cu       7.84359571       1.94872405       9.79110785       3.51354172       0.00208393      -0.00135405      -0.00096812
Al       9.79515722      -0.03299983       9.84192601      -1.75735211      -0.00193119      -0.00005570      -0.00084006
Au       9.77141732       1.93312836       7.79536046       0.77359845       0.00186573       0.00000840       0.00237714
Au       7.81330676       0.14891657      11.79161757       0.10471425       0.00086155      -0.00277809       0.00112003
Au       9.86677642       0.08152556      13.76855993       0.16335433      -0.00716573      -0.00240380       0.00508448
Au       9.88596596       2.03119986      11.77925689       0.83599745      -0.00305939       0.00016923      -0.00377958
Al       7.73361017       3.83063315      -0.03548353      -2.05430380       0.00144307       0.00064818      -0.00031204
Al       7.74272481       5.87719028       1.94576467      -2.50917678       0.00022941       0.00097837       0.00107128
Al       9.75103819       3.89534049       1.89586325      -2.26232064      -0.00341249      -0.00089908       0.00264374
Au       9.75343837       6.04709005       0.05286761       0.66906533       0.00040198      -0.00022236       0.00033948
Au       7.73225708       3.83019870       3.91755296       0.00802136       0.00097986      -0.00343355      -0.00194007
Au       7.83969880       5.96468988       5.85091790       0.32099190       0.00270426      -0.00043455       0.00058098
Au       9.79567432       3.90606208       5.79948595      -0.29551883      -0.00038371      -0.00095636      -0.00077228
Au       9.77524818       5.95509459       3.88661935      -0.49629106      -0.00022915       0.00002208       0.00133309
Au       7.80713302       3.84150760       7.77388707       0.72572780      -0.00080065       0.00049806       0.00083416
Al       7.79876526       5.85063407       9.82723168      -1.29871966       0.00217726      -0.00148154      -0.00198093
Al       9.80303758       3.91352003       9.77594572      -2.25231031      -0.00173903       0.00297026      -0.00225978
Au       9.86590725       5.93809000       7.75260700       0.64052596      -0.00080445      -0.00001097      -0.00062793
Al       7.74614452       3.77271599      11.89604554      -2.15286834       0.00035024       0.00296293       0.00187524
Au       7.76173781       5.92634517      13.73660457       0.23255401      -0.00216553       0.00016654       0.00031758
Au       9.80113326       3.86333506      13.85754494       0.61908762      -0.00188975       0.00098550       0.00016220
Au       9.80733666       5.78739826      11.80338216       1.34009680       0.00130603       0.00085957      -0.00179338
Cu       7.72156559       7.86533964      -0.02269878       2.95651743      -0.00076501      -0.00163608      -0.00024776
Al       7.84371670       9.82770061       1.99190754      -3.22867223      -0.00028584      -0.00035672      -0.00097661
Cu       9.77313400       7.86872024       1.98036479       2.90508416      -0.00000236       0.00055970       0.00051267
Au       9.72622276       9.75060476       0.04086627      -0.83059576       0.00033329       0.00098272      -0.00073108
Cu       7.87949767       7.85220629       3.94306867       3.07749371      -0.00095932      -0.00065945      -0.00212022
Au       7.85477110       9.76457180       5.85491916       0.41296098      -0.00138649      -0.00083153       0.00036357
Cu       9.83370451       7.83206961       5.80192093       2.98415713       0.00019429      -0.00217318      -0.00090185
Au       9.78732598       9.76857120       3.91458016      -0.85837588      -0.00118266       0.00000939      -0.00292458
Al       7.81285184       7.90613403       7.93653982      -1.87876231      -0.00076890      -0.00054561       0.00061353
Cu       7.72497940       9.91968439       9.91830913       3.03544240      -0.00110616       0.00052909      -0.00018935
Al       9.85235609       7.86067648       9.82640887      -1.75934081       0.00174862      -0.00169641       0.00078195
Al       9.84117250       9.74230790       7.85765325      -2.21381078       0.00123883       0.00060400       0.00024687
Au       7.73508276       7.93418744      11.71963713       0.14704229       0.00187634      -0.00179028      -0.00077487
Au       7.73930499       9.82998612      13.69505896      -0.54768130       0.00162972       0.00163931       0.00082637
Al       9.78507719       7.87279153      13.68327271      -2.63336349      -0.00026900      -0.00078181       0.00127013
Au       9.81644653       9.89663144      11.73105384       0.53001700       0.00207708      -0.00004506       0.00064286
Au       7.86624841      11.86355101      -0.05300552      -0.82645765      -0.00017187      -0.00043858       0.00007466
Al       7.86746236      13.73013580       1.95143055      -2.86979857      -0.00044778      -0.00021870      -0.00154503
Cu       9.82441668      11.78195939       1.99334782       2.66704094      -0.00028897      -0.00112577      -0.00050912
Cu       9.75901313      13.69291566      -0.06606075       2.60753384      -0.00174893      -0.00108478      -0.00074438
Cu       7.87579364      11.81462881       3.94800537       3.05432923       0.00067412      -0.00067063      -0.00039717
Cu       7.86490060      13.68379978       5.89174301       3.30025130      -0.00031286       0.00092908      -0.00013261
Al       9.80087629      11.74043369       5.91902442      -2.72525473      -0.00272339      -0.00121576       0.00032326
Au       9.81216016      13.66765254       3.91068297      -0.04905830      -0.00044370       0.00063119       0.00016507
Au       7.77793360      11.76848819       7.95154841       0.50191726      -0.00151863       0.00049526       0.00028103
Al       7.75816148      13.79957199       9.86176996      -2.31560634      -0.00092774      -0.00053011       0.00122649
Au       9.86064342      11.79505626       9.77341869       0.50686883      -0.00105975       0.00019321      -0.00045638
Au       9.82605648      13.78920347       7.83682406       0.46550297       0.00024483       0.00043946      -0.00025576
Al       7.78365219      11.85393659      11.78546664      -3.07443956      -0.00068917      -0.00022757      -0.00151021
Cu       7.83459795      13.77624069      13.75367359       2.52366648      -0.00113420      -0.00109109       0.00109822
Cu       9.75977726      11.73998668      13.78670524       3.07338839       0.00102292      -0.00052589      -0.00119294
Al       9.77405859      13.73325513      11.82268675      -2.04506243       0.00078635      -0.00091888      -0.00095303
Au       7.86290885      15.65212638       0.00256089      -0.20502981      -0.00246782      -0.00227129       0.00079263
Au       7.80997017      17.71579350       2.04794679      -0.54666242      -0.00105115      -0.00083014       0.00189330
Al       9.83586393      15.68778922       1.99505545      -2.22389193       0.00051384       0.00097622       0.00016071
Al       9.77303578      17.66284543       0.01206760      -2.53180163       0.00090448       0.00364976      -0.00171523
Al       7.83052795      15.71124827       3.90121734      -2.34795112      -0.00108097       0.00106974       0.00056607
Au       7.74294242      17.73192500       5.73479323       0.10300800       0.00056975       0.00247416      -0.00105655
Al       9.79948104      15.73299204       5.78967366      -2.16087923       0.00080407      -0.00024463       0.00068898
Cu       9.78287899      17.77409356       3.80865676       3.10151556       0.00044076       0.00033687       0.00185105
Au       7.77386114      15.68948077       7.81186064       1.07157635       0.00023465      -0.00065392       0.00044031
Au       7.74027281      17.52115996       9.96884084       0.25332782       0.00024870       0.00006425      -0.00157616
Al       9.82573473      15.63329651       9.86790771      -1.95604346      -0.00053833       0.00120178      -0.00072491
Al       9.79159845      17.56668459       7.84265365      -1.54516736       0.00101746       0.00052816      -0.00077220
Cu       7.73261683      15.62767153      11.83637622       2.94090340      -0.00125878      -0.00014841      -0.00024735
Au       7.79711733      17.58054894      13.61088295      -0.21584482      -0.00053782       0.00438619       0.00046418
Cu       9.67376777      15.62747569      13.74400355       3.05873678       0.00022450      -0.00147995      -0.00046984
Al       9.85922203      17.57824699      11.83337099      -2.04094255      -0.00055311      -0.00066841       0.00020757
Cu      11.75090420       0.10617300       0.04427242       2.55458810       0.00027021       0.00306383       0.00045547
Cu      11.79758721       1.89917675       1.92506442       2.32790436       0.00059956      -0.00118621      -0.00060292