399
Lattice="19.59262691714357 -0.0029401591670048664 0.00043227724696582155 -0.0029405439160256983 19.594541571232078 0.002722427805357169 0.0003459403246241731 0.002177382872289726 15.670877927394494" Properties=species:S:1:pos:R:3:energies:R:1:forces:R:3 energy=11.799012890223072 free_energy=11.799012890223072 stress="0.00013066190869482784 0.00012771559860743834 -0.0001294097505409145 0.00012771559860743834 -0.0003918235042605364 -0.0001538391362038326 -0.0001294097505409145 -0.0001538391362038326 0.00031847826010356084" pbc="T T T"
Au      -0.02596904       0.03463521       0.06140157      -1.23303541      -0.00254224       0.00315628       0.00424382
Cu      -0.08461701       1.89643262       1.89292079       2.72344837      -0.00095171      -0.00129446      -0.00003109
Cu       2.03243870      -0.04587026       1.95065696       3.20682467       0.00146966      -0.00069468      -0.00097252
Al       1.95466414       1.93085499       0.11525946      -3.32111407       0.00049826      -0.00036282       0.00020845
Al      -0.07236687      -0.02091561       3.85695137      -2.46968760       0.00044229       0.00024269      -0.00077606
Al      -0.07842399       1.97609169       5.79603491      -1.88207202       0.00016865       0.00051678      -0.00052644
Al       1.90392595      -0.00924192       5.82974698      -2.18906718       0.00097477       0.00077657      -0.00010241
Al       1.90290375       1.88780465       3.78744834      -2.80704744       0.00074246       0.00074207       0.00076476
Al      -0.07310348      -0.01753279       7.75347158      -2.47371549       0.00026533       0.00047877      -0.00104405
Au       0.00691522       1.93377725       9.76066918      -0.02496499      -0.00037624       0.00073284       0.00084297
Cu       1.86791718      -0.11500755       9.81336946       2.18629004      -0.00038905       0.00288270      -0.00081246
Au       1.95265398       1.90107082       7.87371786      -0.58250730      -0.00021432       0.00160469       0.00037544
Cu       0.03052396      -0.11016075      11.74944030       2.00531140      -0.00113254       0.00196736      -0.00234139
Cu       0.00333476       1.88994513      13.78623177       2.56241079       0.00123250      -0.00004257      -0.00014800
Au       1.86590932      -0.04891714      13.67464048      -0.30310713       0.00458632       0.00601040      -0.00302283
Au       1.89743619       1.87049353      11.69617524      -0.87773560      -0.00157756      -0.00315077       0.00372835
Cu       0.02495071       3.84327003       0.09395887       2.23359919       0.00044453      -0.00010077       0.00027032
Cu      -0.08627276       5.78811078       1.85764999       2.76035561      -0.00040597      -0.00005383       0.00042935
Cu       1.88208793       3.84145966       1.93381002       2.87008449       0.00012414       0.00012753      -0.00044570
Au       1.93760490       5.77886732       0.07683989      -0.35319542      -0.00061989      -0.00001803       0.00021659
Al      -0.05130246       3.86341758       3.79850837      -2.51917521      -0.00056036      -0.00000571      -0.00044827
Au       0.00712299       5.76031001       5.91408459       0.14147180       0.00008512       0.00084944      -0.00076783
Au       2.02603181       3.77669083       5.80782870       0.33197080       0.00017981      -0.00025130      -0.00056944
Al       1.91256358       5.76610557       3.82350327      -2.29348529       0.00060422       0.00069669      -0.00025920
Cu       0.11700805       3.87137901       7.82188626       3.32522117      -0.00009038       0.00057550       0.00001487
Au       0.05875720       5.82956446       9.71368674       0.58540237       0.00002232       0.00013011      -0.00178132
Cu       1.96306307       3.83323491       9.80052062       2.86384448       0.00017723       0.00062088       0.00013207
Al       1.98256799       5.85579840       7.82367293      -3.22278090      -0.00048871       0.00075792       0.00006865
Au       0.01236001       3.90614325      11.77891323       0.30419653      -0.00027429       0.00073352      -0.00083941
Au      -0.02970559       5.84955594      13.84528673       0.38807762      -0.00044056       0.00067713       0.00059657
Au       1.91871057       3.83549981      13.78677657       0.18562960      -0.00080046       0.00089496       0.00040945
Al       1.98400203       5.86489517      11.81807295      -2.76343098       0.00096705       0.00021980      -0.00042705
Al       0.01425635       7.82529331       0.06789165      -2.95801816      -0.00042564       0.00044353       0.00106850
Au       0.04739904       9.79108691       2.05843006      -0.06383996      -0.00031431       0.00030916       0.00132669
Al       1.94444134       7.83149439       1.94801582      -2.39911382       0.00032704       0.00074079      -0.00120521
Cu       1.98053416       9.84823763       0.01952198       3.02444708       0.00022598       0.00001977       0.00026388
Al       0.06108090       7.76240251       3.95399092      -2.59195223      -0.00078320       0.00000670      -0.00079638
Al       0.05610200       9.74875546       5.92813744      -2.71681343       0.00049569      -0.00083864      -0.00040855
Cu       1.95930793       7.80483150       5.93159616       3.14826843       0.00047775      -0.00002118      -0.00118822
Cu       1.92834631       9.90303870       3.93718864       3.07868002       0.00195040      -0.00087389       0.00088133
Cu       0.00318009       7.72786371       7.76668673       3.57064249      -0.00039646      -0.00014815       0.00008680
Al       0.01777359       9.79536631       9.70996135      -2.23748287      -0.00039196       0.00022172       0.00080971
Al       2.01874125       7.90143696       9.78717532      -2.21145569       0.00055440      -0.00026998      -0.00007897
Al       1.99818611       9.78851947       7.89505393      -2.12934737      -0.00079914      -0.00185380      -0.00016166
Al       0.09464668       7.85370007      11.74408013      -2.15862975      -0.00158877      -0.00017190       0.00041103
Au       0.17817124       9.79434971      13.69248628       0.00997799      -0.00044142      -0.00083152       0.00156916
Cu       1.96675421       7.81151869      13.78704655       3.08343095      -0.00021700      -0.00032412       0.00065692
Cu       2.02423000       9.92898310      11.72688075       2.94433045      -0.00094285       0.00004424       0.00064037
Al       0.10100723      11.86193312      -0.02615630      -3.02469560      -0.00016460      -0.00143999      -0.00047844
Cu       0.08820689      13.78986970       2.02930392       2.87253572      -0.00082209      -0.00216968       0.00193997
Au       1.89007840      11.80774563       1.99698676      -1.08277763       0.00237116       0.00074100      -0.00141495
Cu       1.99908775      13.83551611      -0.06559308       2.23977222       0.00176398      -0.00208953       0.00006965
Cu       0.01832093      11.80498287       3.98232581       2.75378762      -0.00074401       0.00088759      -0.00038989
Au       0.02373474      13.81485049       6.07901901      -1.60917137      -0.00220598      -0.00163144      -0.00072334
Au       1.86619234      11.80440401       5.94687931       0.07392515       0.00107339      -0.00169948      -0.00022868
Au       1.86253374      13.81152237       3.96734887      -0.40959450      -0.00005317      -0.00030553       0.00056388
Cu       0.03872959      11.88948940       7.88789675       3.25856501      -0.00188501       0.00076639      -0.00024253
Au      -0.04663228      13.78652670       9.69583192      -2.07052479       0.00198196       0.00331495      -0.00315759
Au       2.02501682      11.86871807       9.81896559      -1.42976076      -0.00349037      -0.00181807       0.00393330
Cu       1.92237970      13.82654351       7.92239405       2.65598799       0.00082796      -0.00092612      -0.00066202
Au       0.01884116      11.79598476      11.66515413      -0.48491620       0.00159904       0.00001598      -0.00432140
Au       0.03106390      13.82421100      13.59726061      -0.27472039      -0.00194556      -0.00128379      -0.00198337
Au       2.02024474      11.90237632      13.60446084      -1.28354044       0.00256365       0.00125445       0.00290107
Cu       2.02454486      13.79230254      11.72596969       1.97786301      -0.00178350       0.00005277      -0.00077311
Au       0.09426351      15.60162806       0.00781050      -0.31147569      -0.00486248       0.00028218       0.00095655
Al      -0.00827471      17.67914105       1.99146367      -2.49023518      -0.00118865       0.00062750      -0.00095115
Cu       1.91370386      15.66324489       1.92812439       2.73288950       0.00085072      -0.00033880       0.00175035
Au       1.96474443      17.57028328       0.05313093      -1.22348156       0.00620010      -0.00013920       0.00275400
Au       0.00968065      15.78816834       3.97468518      -0.32222452       0.00262055      -0.00084884       0.00185885
Cu      -0.09532499      17.60168884       5.87800500       2.88042037       0.00103452       0.00075607       0.00023040
Cu       1.85307920      15.77331759       6.00036954       2.61960254      -0.00025228      -0.00255854       0.00180193
Al       1.96707822      17.65542597       3.93245079      -2.63932187       0.00107835      -0.00136829       0.00016316
Cu       0.01674762      15.73025814       7.91054802       2.23711195      -0.00041217      -0.00153035      -0.00154973
Cu      -0.01187977      17.60081671       9.83665475       2.14737908       0.00233144      -0.00262878       0.00056594
Au       1.91277860      15.71784847       9.86381439      -2.49117700      -0.00789469      -0.00260758       0.00220844
Au       1.84265797      17.64333031       7.85201267      -1.57919575      -0.00145034       0.00036845      -0.00091833
Al      -0.14732848      15.70043855      11.70938575      -3.64344751       0.00031503      -0.00076898      -0.00363318
Au      -0.02404342      17.57201893      13.65652825      -0.95230554      -0.00238648      -0.00333933      -0.00194895
Cu       1.98121212      15.65385221      13.65217979       1.86248808       0.00049615       0.00172003       0.00096434
Cu       1.88563080      17.61410049      11.71013543       2.00389209       0.00080169      -0.00009107      -0.00133281
Au       3.86696225      -0.05062526       0.07619615       0.11691123      -0.00338681      -0.00060367       0.00170451
Cu       3.90586659       1.93267403       2.06429679       2.58545943       0.00032070       0.00020743      -0.00012000
Al       5.80303910      -0.03669881       2.00227079      -3.47807373      -0.00044853      -0.00089073       0.00023395
Al       5.79306506       1.94425606       0.03356588      -2.30128564      -0.00005097       0.00124660       0.00091941
Au       3.92824079      -0.03309244       3.91757263      -1.42632616       0.00030518      -0.00002184       0.00023031
Cu       3.94372735       1.85590830       5.84292480       2.67392535      -0.00015321      -0.00002579       0.00039296
Cu       5.80780298      -0.01706458       5.79176568       1.88100368      -0.00044662      -0.00021568       0.00080060
Cu       5.81024120       1.88108098       3.95583048       1.75639702       0.00015071       0.00011442       0.00026194
Au       3.85616864      -0.04258519       7.87429764      -0.97013888       0.00055811       0.00058691       0.00067775
Cu       3.82534661       1.92564379       9.80087061       2.86363701       0.00016179       0.00196586       0.00041708
Al       5.83033997       0.00068265       9.84844007      -2.96541495      -0.00114878      -0.00090933       0.00075779
Au       5.87302214       1.84119923       7.76113054      -0.29436428      -0.00077203       0.00042886       0.00114837
Al       3.86537936      -0.06784827      11.65779011      -3.29277093      -0.00000200       0.00284911      -0.00117258
Al       3.91686859       1.90173814      13.70542486      -2.31094856      -0.00199882      -0.00013051       0.00041336
Au       5.81632953      -0.10043449      13.64020519       0.26523184       0.00222611       0.00269912       0.00035439
Cu       5.86611342       1.95397147      11.78024692       3.12428763      -0.00053710       0.00086871       0.00064693
Al       3.93915408       3.85174246       0.07424240      -2.54289922       0.00038962       0.00019480       0.00040763
Al       3.91464812       5.77543519       2.01702458      -2.26806177      -0.00038963       0.00037977       0.00019081
Cu       5.78433535       3.74002140       2.11876625       2.95634985       0.00053570      -0.00054667       0.00019888
Au       5.78784209       5.90164417      -0.05261690      -0.21038472       0.00147333       0.00032163      -0.00026581
Cu       3.89139448       3.72052865       3.87404422       2.40614274       0.00016069      -0.00001488      -0.00015032
Au       3.83126319       5.89729018       5.82869346       0.52648855       0.00123451       0.00108075      -0.00053778
Al       5.77977997       3.86542530       5.82559060      -3.01483104      -0.00024512      -0.00011257       0.00028825
Al       5.80938979       5.87733630       3.90489082      -2.36387981       0.00008625       0.00021259      -0.00018761
Au       3.89574378       3.80403616       7.87041103       0.12579536       0.00073784       0.00077839       0.00066326
Au       3.87430584       5.85996950       9.79775863       0.99928644      -0.00013686       0.00066079       0.00087714
Al       5.87355895       3.80987218       9.80353580      -2.36149517      -0.00067081       0.00042237       0.00003128
Al       5.83868665       5.87986511       7.84391437      -2.05365232       0.00042653      -0.00018287      -0.00000224
Au       3.91175725       3.82899283      11.75962397      -0.30618604       0.00036279       0.00133963       0.00028937
Cu       3.87192178       5.88161552      13.76841134       2.76654039      -0.00010582      -0.00019300      -0.00019545
Cu       5.79550423       3.95029095      13.67921882       3.27223329       0.00082021       0.00086612       0.00031445
Al       5.79538470       5.90216578      11.79073586      -2.60800477       0.00002408       0.00072529       0.00054420
Au       3.83540472       7.87547695      -0.06209751      -0.78488450       0.00081076      -0.00070572       0.00092615
Cu       3.81410465       9.86482615       1.91796612       2.80363126       0.00057806      -0.00082384      -0.00029385
Au       5.80100517       7.90300788       1.96479804       0.53753708       0.00040554       0.00064186      -0.00064987
Au       5.81871817       9.82754457      -0.01552766      -0.32663805       0.00045523      -0.00127456       0.00010332
Au       3.75548340       7.96748760       3.92513561       0.48488925       0.00152733       0.00012143      -0.00049272
Al       3.84036294       9.83907381       5.93970681      -2.31415759       0.00143302      -0.00053236      -0.00047810
Au       5.81280459       7.87474262       5.88107459       0.91916254       0.00004034      -0.00033968      -0.00041550
Al       5.86603108       9.82991820       3.91359223      -2.71938693       0.00152015      -0.00015033      -0.00064197
Cu       3.90449760       7.82233841       7.81770886       3.45438552       0.00114057      -0.00064688       0.00007358
Cu       3.90572529       9.91703001       9.98345085       2.42659151       0.00027308      -0.00118708       0.00116694
Au       5.72043501       7.98841763       9.82448088      -0.03379978       0.00031140       0.00037402       0.00078309
Al       5.77422319       9.87992740       7.91057972      -2.53677746      -0.00020240       0.00011714       0.00133245
Au       3.86354516       7.91861837      11.88253738      -0.66944505       0.00056057      -0.00051128      -0.00031611
Al       3.86663779       9.88612258      13.67694978      -3.72405600      -0.00108354       0.00153654       0.00054308
Cu       5.84584542       7.87978228      13.73653320       2.72346888       0.00045534       0.00058513       0.00053451
Cu       5.79707435       9.87787634      11.74877146       2.19860054       0.00035940      -0.00069295       0.00106547
Au       3.80615965      11.84608799       0.01444531      -0.61501662      -0.00565926       0.00163317      -0.00176711
Al       3.85365045      13.85433959       1.99003443      -3.26655306       0.00083938      -0.00064589      -0.00082195
Au       5.84341628      11.77611331       1.96372800       0.49639072       0.00200536      -0.00039676       0.00034438
Au       5.76862132      13.84439596       0.00681058      -0.28350560       0.00157074       0.00115080       0.00034428
Au       3.84766003      11.75464818       3.92622056       0.35548997       0.00124720      -0.00090986       0.00139295
Al       3.83021017      13.78408623       5.91704118      -2.21651750       0.00135324      -0.00076600       0.00111443
Au       5.93634763      11.83541754       5.86528799       0.75491338       0.00050058       0.00026283       0.00092498
Au       5.91511001      13.75270905       3.90582309       0.72019189       0.00082701      -0.00048544       0.00048022
Al       3.90569638      11.85377162       7.91536137      -2.23987061       0.00275557      -0.00190074      -0.00037425
Cu       3.82730996      13.83434705       9.86069478       2.19565653      -0.00031079      -0.00353886       0.00024040
Cu       5.75292989      11.75483842       9.94355109       2.36905752      -0.00000939      -0.00035590       0.00189876
Al       5.80217559      13.75946515       7.95698608      -2.40720726       0.00076539      -0.00071445       0.00046347
Cu       3.89241399      11.88513117      11.69500164       1.83292674      -0.00151897      -0.00046857      -0.00151677
Cu       3.80005303      13.82987918      13.66560436       1.89974044      -0.00012091      -0.00412702      -0.00019744
Au       5.76653070      11.92092805      13.65153146      -0.57093565       0.00076478      -0.00093019      -0.00067573
Au       5.70489208      13.82565630      11.67626939      -1.71108609      -0.00137762      -0.00182653       0.00006514
Cu       3.79100888      15.68477370      -0.00056224       2.12278494       0.00088479       0.00178152      -0.00043179
Cu       3.86650367      17.55134108       1.94356464       2.42435284      -0.00086600      -0.00025833      -0.00232342
Cu       5.82976082      15.78194189       1.99075392       2.88691965       0.00068490       0.00028684       0.00044932
Au       5.77744400      17.51726420       0.04700167      -0.55501180      -0.00040376      -0.00054999       0.00122213
Al       3.86460345      15.77829031       3.96252604      -2.69063006       0.00203812      -0.00070213       0.00023649
Cu       3.91489412      17.68994993       5.93689295       2.89948455       0.00144341      -0.00048433       0.00106918
Al       5.82634616      15.69263917       5.85097967      -2.31614784      -0.00020721      -0.00015489       0.00105304
Cu       5.78910860      17.68997741       3.91958578       2.60736521       0.00051548       0.00019610      -0.00040496
Au       3.81810307      15.72047101       7.88134851      -1.03833984       0.00366817      -0.00136611      -0.00289082
Cu       3.81257775      17.57569744       9.82259523       2.19233553       0.00206145       0.00352193      -0.00128348
Cu       5.69242063      15.76532839       9.86256650       2.24077209      -0.00014655      -0.00056173      -0.00035803
Au       5.80241413      17.63560456       7.85347523      -0.26521569      -0.00196276      -0.00210568       0.00085429
Cu       3.79607418      15.71381516      11.69413451       1.54683464       0.00100473       0.00024092       0.00271148
Au       3.80988826      17.52663938      13.62070834      -1.13475780      -0.00180133      -0.00429798      -0.00235726
Al       5.77778282      15.63993693      13.66568753      -3.81335806      -0.00147320       0.00194905       0.00050376
Cu       5.78831996      17.51110338      11.72018828       2.49412238      -0.00172788      -0.00076784       0.00030495
Au       7.82208303      -0.03944682       0.00401659       0.16696367       0.00134011      -0.00105095       0.00009489
Au       7.76266966       1.87880531       1.99115239      -0.44200483      -0.00012867       0.00016642       0.00063566
Cu       9.77081842       0.04598276       1.94205767       2.33280576      -0.00042885      -0.00056377      -0.00019143
Cu       9.78761739       1.85485631       0.06042431       2.57759453      -0.00007430      -0.00083342      -0.00085992
Cu       7.74937193       0.02957181       3.92386359       2.22968216      -0.00106146      -0.00007609       0.00041899
Cu       7.75454765       1.87212911       5.78055093       2.50723996      -0.00095704       0.00017110       0.00035215
Al       9.78801514      -0.04686827       5.82055925      -2.56432175      -0.00040450       0.00013208       0.00022826
Au       9.76418540       1.87144523       3.85066178      -0.66090860      -0.00107656      -0.00064284      -0.00036908
Al       7.83061589      -0.05991639       7.84863079      -2.28821390      -0.00046791       0.00028480       0.00164081
Cu       7.84173685       1.94238538       9.79512620       3.45281326      -0.00049891      -0.00039261       0.00039787
Al       9.80803134      -0.04895765       9.82560594      -1.75054050      -0.00003239      -0.00013857       0.00169836
Au       9.76995308       1.93016524       7.79756963       0.77389745      -0.00044978       0.00142264      -0.00003322
Au       7.80516281       0.04061868      11.72527003       0.06289212      -0.00008119      -0.00002967       0.00053744
Au       7.74838103       1.99173361      13.73271789       0.02362943      -0.00032538       0.00020712      -0.00011831
Au       9.85099294       0.04035973      13.76349452       0.10184220      -0.00065231       0.00106758      -0.00042612
Au       9.84515273       2.03029348      11.77011847       0.73157382      -0.00057972      -0.00042099       0.00060628
Al       7.71825655       3.91806587       0.07280794      -2.36589341      -0.00023407      -0.00030962       0.00002340
Al       7.74676208       5.92534043       1.98023564      -2.51380504       0.00122502       0.00002614      -0.00036299
Al       9.75550997       3.90005756       1.90999313      -2.25295165      -0.00047847      -0.00037119       0.00001170
Au       9.75325883       6.07254430       0.06798542       0.64570409       0.00104171      -0.00037126       0.00069323
Au       7.73538766       3.83875526       3.92115472       0.01575906      -0.00035154      -0.00068167      -0.00117725
Au       7.84105165       5.97115093       5.85413645       0.33078043       0.00027068       0.00036595      -0.00050234
Au       9.79721115       3.90736824       5.80373909      -0.28881061       0.00010263      -0.00014669       0.00078520
Au       9.78392908       5.96190166       3.89822071      -0.48969220      -0.00055670      -0.00006694      -0.00027149
Au       7.81011585       3.84416088       7.77593349       0.73936784      -0.00026027      -0.00086225      -0.00028828
Al       7.80421453       5.89659993       9.77995722      -1.30080245       0.00024121       0.00019809      -0.00007354
Al       9.81863392       3.92985968       9.75900415      -2.25424829      -0.00109297      -0.00033133      -0.00000035
Au       9.87683151       5.95147338       7.74196117       0.63181941      -0.00019353       0.00042241      -0.00006006
Al       7.77338633       3.91209960      11.74963727      -2.34807978      -0.00002025      -0.00079535       0.00030675
Au       7.76496561       5.93680875      13.73590552       0.18902633      -0.00066629      -0.00000631       0.00140349
Au       9.78678169       3.91748608      13.84622774       0.52930837       0.00055117      -0.00101660       0.00001610
Au       9.82334568       5.83710437      11.77878486       1.36689744       0.00016730      -0.00005715       0.00022355
Cu       7.71940136       7.87639826      -0.02283580       2.97274787       0.00005574       0.00077376       0.00038539
Al       7.84239632       9.82793047       1.99423166      -3.23216199      -0.00115011       0.00002822       0.00008807
Cu       9.78474538       7.88288518       1.99347900       2.94325982       0.00155921       0.00077916      -0.00042715
Au       9.73100566       9.75742784       0.04340585      -0.83669670       0.00123894      -0.00054859      -0.00090032
Cu       7.88163617       7.86557058       3.95509938       3.09726213       0.00100843       0.00006009       0.00018316
Au       7.85197110       9.77734732       5.85032524       0.39762696       0.00095771      -0.00021888       0.00036187
Cu       9.83795156       7.84509867       5.80058503       2.99583388       0.00060902       0.00008062      -0.00019594
Au       9.79275230       9.77832744       3.91404216      -0.87800040      -0.00033084      -0.00020904      -0.00019688
Al       7.81363659       7.92816168       7.92075143      -1.88302342       0.00023606       0.00019494       0.00062533
Cu       7.72576371       9.92539360       9.91419558       3.03783951       0.00054785      -0.00024985       0.00031350
Al       9.86192629       7.88609186       9.81034283      -1.77157730       0.00073553       0.00031994       0.00069981
Al       9.84776772       9.75508207       7.84873988      -2.21005799       0.00068782      -0.00065183       0.00063877
Au       7.74013883       7.94210650      11.71347653       0.14160025       0.00041970       0.00039908       0.00030521
Au       7.74226347       9.83767801      13.69252148      -0.55242861       0.00037215      -0.00034486       0.00020010
Al       9.78852629       7.88684527      13.68617975      -2.63675621       0.00041961       0.00045175       0.00057923
Au       9.82187618       9.90665821      11.73172122       0.53419372      -0.00005946       0.00030823       0.00055298
Au       7.86379110      11.86333663      -0.05015310      -0.82676973       0.00066096       0.00130732       0.00034861
Al       7.86639581      13.72186274       1.96115717      -2.87645707      -0.00074135      -0.00033113      -0.00047311
Cu       9.82999857      11.78081806       1.99007340       2.67106271       0.00009420       0.00164180      -0.00031026
Cu       9.76159475      13.68657960      -0.05739424       2.60721041       0.00001481       0.00023998      -0.00051407
Cu       7.87264965      11.81387980       3.94960546       3.05778051      -0.00057840      -0.00017894       0.00030850
Cu       7.86521168      13.67060263       5.88750888       3.30928673      -0.00009264      -0.00025695       0.00064626
Al       9.80866548      11.73990221       5.91724504      -2.72545967      -0.00031797       0.00001135      -0.00003306
Au       9.82114677      13.65813646       3.91181421      -0.03427716      -0.00051432       0.00029861      -0.00003126
Au       7.77669335      11.77238819       7.94952286       0.49191213      -0.00026135      -0.00069725       0.00016143
Al       7.75744883      13.80402968       9.85204738      -2.31711632      -0.00015312       0.00002344       0.00312334
Au       9.86457848      11.79932851       9.77054283       0.51063838       0.00114776       0.00013735       0.00263497
Au       9.83598337      13.78404941       7.82870546       0.48549096      -0.00054809       0.00077140       0.00015630
Al       7.78261060      11.85835533      11.77966320      -3.07110796       0.00036204       0.00048336       0.00134384
Cu       7.83587001      13.77270300      13.75739395       2.51976951      -0.00074002      -0.00007080      -0.00032634
Cu       9.76100702      11.74336333      13.78913985       3.06587737       0.00043817       0.00092369       0.00034344
Al       9.77375997      13.73197318      11.82080344      -2.04393840       0.00034212       0.00020098       0.00092472
Au       7.86340461      15.63794486       0.01783557      -0.19428658       0.00055046       0.00096739      -0.00029834
Au       7.80653926      17.68053675       2.08733012      -0.54443240      -0.00010389       0.00015942      -0.00062420
Al       9.84443159      15.67686135       2.00661212      -2.23343291      -0.00245670       0.00105691       0.00023548
Al       9.78292223      17.63742017       0.02835575      -2.52217156      -0.00125324      -0.00070313      -0.00121348
Al       7.83452592      15.68651675       3.92346218      -2.34164502      -0.00030922       0.00051946      -0.00027158
Au       7.74634934      17.72488482       5.73018548       0.09342179      -0.00051575       0.00012879       0.00126505
Al       9.81787022      15.72878648       5.78451696      -2.16196868      -0.00045549      -0.00021457       0.00067531
Cu       9.79685817      17.77109982       3.81312092       3.10993290      -0.00061357       0.00025923       0.00025343
Au       7.77668896      15.67059490       7.77887313       1.06898684      -0.00034548       0.00095822       0.00281176
Au       7.73786693      17.47260850       9.92725696       0.24864697      -0.00149257      -0.00000388       0.00136250
Al       9.83797314      15.61779658       9.85416787      -1.95363042      -0.00107917       0.00016964       0.00035940
Al       9.80076984      17.55541665       7.83361153      -1.54729852      -0.00118268      -0.00053028       0.00104133
Cu       7.73267686      15.61706741      11.83423537       2.95372995      -0.00101665       0.00007656       0.00136104
Au       7.80033816      17.54881416      13.62770190      -0.22788899      -0.00044845      -0.00124281       0.00017962
Cu       9.67856665      15.61284449      13.75335300       3.06676134       0.00049164       0.00040309       0.00051894
Al       9.85754328      17.54289327      11.82188081      -2.06177681       0.00081767      -0.00044220       0.00090353
Cu      11.72081429       0.11969412       0.03991803       2.53557212      -0.00013201       0.00042480      -0.00076074