399
Lattice="19.59262691714357 -0.0029401591670048664 0.00043227724696582155 -0.0029405439160256983 19.594541571232078 0.002722427805357169 0.0003459403246241731 0.002177382872289726 15.670877927394494" Properties=species:S:1:pos:R:3:energies:R:1:forces:R:3 energy=11.943151561407573 free_energy=11.943151561407573 stress="0.00038380497356533806 0.0001333481838824256 -0.00010604246859386705 0.0001333481838824256 0.0002040248606874295 -6.943942720892825e-05 -0.00010604246859386705 -6.943942720892825e-05 0.0007741184237563727" pbc="T T T"
Au      -0.01903801       0.04191251       0.06292689      -1.22558119      -0.00080705      -0.00039407       0.00057804
Cu      -0.08618989       1.90202185       1.89371261       2.72013413      -0.00051163      -0.00065918       0.00017453
Cu       2.03304032      -0.04747858       1.95185443       3.20629809       0.00077941      -0.00008217      -0.00041689
Al       1.95876896       1.93420256       0.11716471      -3.31586677      -0.00029495       0.00001988       0.00017496
Al      -0.07395882      -0.02198008       3.85615249      -2.46506240      -0.00066666       0.00034954       0.00004631
Al      -0.08067487       1.97463701       5.79797718      -1.88186968      -0.00045698       0.00097916      -0.00129884
Al       1.90205471      -0.00837774       5.82903468      -2.18241884      -0.00082650      -0.00059226       0.00023727
Al       1.90257622       1.88874062       3.78729948      -2.80541584      -0.00032883      -0.00059342      -0.00008624
Al      -0.07950181      -0.02153454       7.75636614      -2.47584507      -0.00036844      -0.00079254      -0.00088422
Au      -0.00078207       1.93420355       9.76180930      -0.01892394       0.00023716      -0.00064170      -0.00053500
Cu       1.86919295      -0.11015502       9.80729657       2.18342992       0.00025456       0.00014872       0.00021937
Au       1.94834499       1.90233156       7.87534696      -0.58817663      -0.00176196      -0.00020522      -0.00000195
Cu       0.02821911      -0.11607952      11.74653634       2.00723522      -0.00057180      -0.00038240       0.00033269
Cu       0.00215817       1.89395396      13.78719075       2.55753125       0.00019562      -0.00013318       0.00016743
Au       1.87462012      -0.03874555      13.67294368      -0.27879074       0.00025847       0.00042618      -0.00004159
Au       1.89263438       1.87355988      11.69310856      -0.87528689       0.00057665      -0.00172545       0.00045603
Cu       0.02562882       3.84225035       0.09206679       2.23373504       0.00071441       0.00029660       0.00031932
Cu      -0.08075521       5.78120364       1.85043837       2.74926653       0.00015018      -0.00043426       0.00168116
Cu       1.88268565       3.84410444       1.93466696       2.86872113      -0.00054496      -0.00101924      -0.00104977
Au       1.94129090       5.77951335       0.07373009      -0.35309089      -0.00131243      -0.00070245       0.00026257
Al      -0.05240046       3.86394550       3.79916455      -2.52210506       0.00035667       0.00002508      -0.00173751
Au       0.00469833       5.76280685       5.91043744       0.14521829      -0.00001771      -0.00046158       0.00074622
Au       2.02354329       3.77773265       5.80898758       0.33232145       0.00000600      -0.00048606      -0.00111152
Al       1.91183158       5.76802730       3.82514841      -2.29633814       0.00005184      -0.00097832      -0.00128325
Cu       0.11324666       3.87451807       7.82211081       3.31309771      -0.00032707      -0.00081884       0.00011086
Au       0.05557179       5.83464014       9.71420868       0.59592361       0.00070357      -0.00056434       0.00022809
Cu       1.95776568       3.83690028       9.79965093       2.85565241      -0.00035363      -0.00123984      -0.00010530
Al       1.97704598       5.86348921       7.82112385      -3.21299648      -0.00007387      -0.00110880       0.00070566
Au       0.00745511       3.91248318      11.78101316       0.30527984       0.00074231       0.00037657       0.00007658
Au      -0.03399660       5.85470046      13.85209705       0.39132000       0.00129669       0.00003088       0.00135319
Au       1.91726282       3.83743821      13.78451989       0.18173750      -0.00018982      -0.00050106       0.00014442
Al       1.98181828       5.86790787      11.81843214      -2.76103016      -0.00077884      -0.00092730       0.00136864
Al       0.02516072       7.83326313       0.06883865      -2.96270965      -0.00118613       0.00173094       0.00040443
Au       0.05652910       9.79201912       2.07518935      -0.05376003       0.00621600      -0.00319313       0.00136443
Al       1.94820861       7.82859622       1.95048644      -2.39901504      -0.00089261       0.00162958      -0.00179434
Cu       1.98466748       9.84947905       0.02182915       3.02801435       0.00026607      -0.00064467       0.00034668
Al       0.04867568       7.75731248       3.94264683      -2.58719291      -0.00008887       0.00167796      -0.00081009
Al       0.01039164       9.75148467       5.86355763      -2.71340571       0.00086845      -0.00086739       0.00128915
Cu       1.94824194       7.81236279       5.91899099       3.13033689       0.00167870      -0.00142441       0.00032741
Cu       1.93885446       9.89945693       3.93861083       3.10509524       0.00021986       0.00028869      -0.00304210
Cu      -0.00180444       7.73679270       7.75580616       3.55664218       0.00004698      -0.00057719      -0.00059309
Al       0.01756841       9.79786871       9.72204304      -2.22967684       0.00148969       0.00101911       0.00005267
Al       2.01344907       7.90675529       9.78545849      -2.21377669      -0.00114596      -0.00034434       0.00043769
Al       1.96340417       9.78570827       7.87254877      -2.14054070       0.00005665      -0.00057149      -0.00001946
Al       0.09096832       7.85380297      11.75330426      -2.16462244       0.00144828      -0.00018680       0.00011991
Au       0.16876718       9.79571429      13.70336768       0.03026975       0.00036544       0.00053776       0.00122515
Cu       1.96768647       7.81695400      13.78601957       3.08233080       0.00085406      -0.00071808       0.00095403
Cu       2.01956027       9.92766868      11.73349154       2.93852960      -0.00001855       0.00018229      -0.00073273
Al       0.10227803      11.85295506      -0.01873745      -3.03028112       0.00143838       0.00162009      -0.00059852
Cu       0.07923182      13.78493463       2.02586757       2.85786259       0.00024696       0.00049215       0.00065098
Au       1.89414496      11.81138833       1.99854557      -1.07201543       0.00023720      -0.00146496       0.00015376
Cu       1.99064389      13.84042409      -0.06186858       2.20476342       0.00104170       0.00023213      -0.00019344
Cu       0.00818585      11.80400595       3.97032649       2.77799353       0.00129402       0.00007825      -0.00048709
Au       0.01242395      13.80812136       6.07207793      -1.60829623      -0.00047632       0.00132251      -0.00103484
Au       1.85227451      11.79666811       5.93837650       0.06208701       0.00002870       0.00012388      -0.00093353
Au       1.85605641      13.81208628       3.96591954      -0.40740867      -0.00153391       0.00011496      -0.00000859
Cu       0.02317580      11.88826970       7.88098254       3.23240086       0.00005600       0.00071044      -0.00000687
Au      -0.05100009      13.78398351       9.69798461      -2.01454762       0.00087174       0.00070238       0.00032633
Au       2.01598872      11.86241465       9.81765649      -1.41620562      -0.00025227       0.00035266      -0.00055215
Cu       1.91583655      13.81682157       7.91486053       2.64348490       0.00058202       0.00054830      -0.00000657
Au       0.01139557      11.79996002      11.67285708      -0.45791700       0.00106150      -0.00046081      -0.00082299
Au       0.03600226      13.82166279      13.59813266      -0.68220037       0.00008380      -0.00113069      -0.00006906
Au       2.02237219      11.89589309      13.60697459      -1.28084395       0.00046748      -0.00033822      -0.00048828
Cu       2.03564085      13.78408528      11.72225055       1.97688408       0.00018203       0.00000832       0.00017877
Au       0.06053877      15.60368963      -0.00349030      -0.53251376       0.00059980       0.00060571       0.00060154
Al      -0.01195126      17.67854725       1.98834999      -2.49412516       0.00060058       0.00011676      -0.00077882
Cu       1.90123702      15.65873791       1.92134438       2.70812497       0.00011766       0.00009887       0.00043720
Au       1.96450382      17.56661304       0.05509954      -1.24110382      -0.00009229      -0.00086463       0.00093744
Au       0.00022330      15.78670220       3.96959558      -0.32331731      -0.00069956      -0.00142452       0.00003505
Cu      -0.10139543      17.59817280       5.87850863       2.86744370       0.00028480      -0.00016414      -0.00013855
Cu       1.84472400      15.76557505       5.99999807       2.61339971       0.00013401      -0.00002273      -0.00037814
Al       1.96330348      17.65057928       3.93311001      -2.63134557       0.00088421       0.00062775       0.00007818
Cu       0.01238714      15.72337109       7.91145172       2.22902169       0.00064678      -0.00035088      -0.00012932
Cu      -0.00347356      17.59801004       9.83158580       2.16705611      -0.00006358      -0.00080712      -0.00004146
Au       1.93138678      15.71041369       9.84319996      -2.45056266      -0.00075503       0.00050233       0.00136800
Au       1.84404293      17.64238611       7.84441204      -1.56815088      -0.00093034       0.00128099      -0.00040290
Al      -0.06956694      15.69835627      11.67905612      -4.10914098       0.00102943      -0.00043427      -0.00003518
Au      -0.00690066      17.57614925      13.65013663      -1.36432073      -0.00045531      -0.00097713       0.00023597
Cu       1.98329311      15.65357465      13.65772505       1.87168782      -0.00011559       0.00022709      -0.00012346
Cu       1.90463342      17.62286925      11.69498356       2.00515675       0.00018520      -0.00003827       0.00016936
Au       3.86670311      -0.05212459       0.07754615       0.11390633      -0.00021120       0.00024619      -0.00036470
Cu       3.90789300       1.93312916       2.06579836       2.58414236      -0.00077556      -0.00074814       0.00010758
Al       5.80560106      -0.03700429       2.00234346      -3.47423764       0.00064878       0.00083582       0.00046849
Al       5.79472502       1.94437430       0.03470575      -2.29993745       0.00035027      -0.00033020       0.00007100
Au       3.92813953      -0.03420559       3.91700643      -1.42680258      -0.00037971      -0.00017467       0.00054900
Cu       3.94318763       1.85768460       5.84169582       2.66886140       0.00000347      -0.00068340       0.00016893
Cu       5.80990391      -0.01533867       5.78954764       1.87851573       0.00004443      -0.00003131       0.00024945
Cu       5.81192001       1.88272810       3.95510337       1.74884492       0.00023904      -0.00042391       0.00029245
Au       3.85737478      -0.03907951       7.87076603      -0.97702420      -0.00068743      -0.00032126       0.00082621
Cu       3.82420092       1.92948601       9.79880448       2.86453390       0.00021794      -0.00070039      -0.00051267
Al       5.83429693       0.00356762       9.84635254      -2.95878062      -0.00017880       0.00051190      -0.00044354
Au       5.87368386       1.84490287       7.75903074      -0.28844735       0.00031908      -0.00061518      -0.00017726
Al       3.87035126      -0.06049600      11.65452724      -3.29239557      -0.00022652       0.00035268      -0.00087315
Al       3.91928956       1.90562234      13.70498607      -2.31073081      -0.00038406      -0.00091944      -0.00005684
Au       5.81865910      -0.09938657      13.64151542       0.26681896       0.00067349       0.00088297      -0.00119733
Cu       5.86924185       1.95697098      11.78137839       3.12226143       0.00014519      -0.00067528      -0.00058632
Al       3.94002545       3.85227212       0.07389360      -2.53946375       0.00145712      -0.00109050       0.00036778
Al       3.91455796       5.77487964       2.01785440      -2.27045861       0.00181299      -0.00086253      -0.00013892
Cu       5.78521088       3.74085052       2.11978567       2.95492939       0.00024377      -0.00085162       0.00055327
Au       5.78754648       5.90046312      -0.05143347      -0.21160207       0.00075428      -0.00027069      -0.00010639
Cu       3.89027351       3.72196048       3.87507795       2.40597747       0.00064403      -0.00098542      -0.00030296
Au       3.82814029       5.90061495       5.83123169       0.53524988       0.00010656      -0.00006837      -0.00087423
Al       5.78017787       3.86817299       5.82421796      -3.01067315       0.00011496      -0.00101730      -0.00005931
Al       5.80862264       5.87696325       3.90597973      -2.36450971       0.00033610       0.00011377       0.00005653
Au       3.89242770       3.80645017       7.87003645       0.12167709       0.00023235      -0.00130409      -0.00058977
Au       3.87023257       5.86278730       9.79565063       0.99608236      -0.00031102      -0.00141423      -0.00026306
Al       5.87389574       3.81174841       9.80194776      -2.35780041      -0.00073661      -0.00198663      -0.00072080
Al       5.83845538       5.88024829       7.84244154      -2.04708809       0.00005786      -0.00098754      -0.00099992
Au       3.91025690       3.83047405      11.75748310      -0.30095265      -0.00042866      -0.00042598      -0.00002532
Cu       3.87233038       5.88295556      13.76695794       2.76662290       0.00060587      -0.00076310       0.00051136
Cu       5.79646777       3.95114829      13.67937724       3.27076765       0.00021903      -0.00040307       0.00003314
Al       5.79379873       5.90121591      11.78996546      -2.60903272      -0.00011257      -0.00075519      -0.00063798
Au       3.83626237       7.87595258      -0.06178840      -0.78487787       0.00143027      -0.00113889       0.00049883
Cu       3.81627763       9.86515063       1.91865654       2.79910407      -0.00020688      -0.00006135      -0.00000214
Au       5.80262513       7.90245878       1.96434108       0.53359782       0.00060166       0.00051277       0.00003399
Au       5.81951982       9.82792753      -0.01548558      -0.32369781      -0.00049341      -0.00056278       0.00009012
Au       3.76072955       7.96586930       3.92559844       0.48211751       0.00079205      -0.00158199      -0.00057528
Al       3.84003440       9.83895112       5.94121673      -2.31975183       0.00046733      -0.00120120      -0.00120199
Au       5.81379508       7.87376754       5.88271848       0.92381311      -0.00080439      -0.00028918      -0.00058016
Al       5.86717578       9.83008812       3.91427124      -2.72213480      -0.00002017      -0.00079786      -0.00009462
Cu       3.89860941       7.82935506       7.81706574       3.44171738      -0.00066170      -0.00177522      -0.00022155
Cu       3.89724897       9.91422257       9.97762627       2.41675699      -0.00050525      -0.00081652      -0.00105782
Au       5.71753181       7.98799116       9.82192121      -0.03490527      -0.00076287      -0.00041877      -0.00010131
Al       5.77531405       9.88012446       7.91009510      -2.54005903      -0.00043416      -0.00027714      -0.00070063
Au       3.86252038       7.91965982      11.88081926      -0.67147236      -0.00028991      -0.00028045      -0.00074152
Al       3.87027767       9.88551036      13.67754073      -3.72576102      -0.00026894      -0.00056975       0.00039123
Cu       5.84556396       7.87735886      13.73695176       2.72344393      -0.00023616       0.00040216      -0.00027978
Cu       5.79478219       9.87749542      11.74579344       2.19903996      -0.00025131       0.00036237      -0.00040312
Au       3.80563685      11.84990703       0.01466094      -0.61250526       0.00002788       0.00067600       0.00042833
Al       3.85228151      13.85774295       1.99045332      -3.26299104       0.00076076       0.00148138       0.00044865
Au       5.84230931      11.77691863       1.96360517       0.49487185       0.00065279       0.00053550       0.00094544
Au       5.76950270      13.84588563       0.00753113      -0.28445709       0.00067046       0.00114531      -0.00026119
Au       3.84858294      11.75600714       3.92815393       0.35606049       0.00155410       0.00066491      -0.00122203
Al       3.82677932      13.77611014       5.91494620      -2.21536631       0.00023635       0.00172345      -0.00042913
Au       5.93777260      11.83437359       5.86439498       0.75605388      -0.00008788       0.00038041       0.00046269
Au       5.91548681      13.75276615       3.90499634       0.71869497       0.00089572       0.00005626       0.00030173
Al       3.89656704      11.84415709       7.91119450      -2.24149566      -0.00061920       0.00019234      -0.00045242
Cu       3.83051080      13.82299270       9.85364299       2.20013504      -0.00066633       0.00040140      -0.00018918
Cu       5.74906992      11.75331488       9.94105536       2.36229064      -0.00059345       0.00075840      -0.00088751
Al       5.80200494      13.75445253       7.95397209      -2.41092694      -0.00069830       0.00171340      -0.00171181
Cu       3.89054950      11.87903420      11.69225484       1.82308369       0.00022547       0.00009731      -0.00066295
Cu       3.79864373      13.82713176      13.66832990       1.90370154      -0.00029474       0.00090507       0.00043273
Au       5.76578444      11.92174505      13.65091549      -0.56664064      -0.00038228       0.00060290      -0.00082254
Au       5.70087721      13.82477409      11.67515830      -1.70571710      -0.00090507       0.00065883       0.00000944
Cu       3.79207395      15.68474654      -0.00040620       2.12644917      -0.00041757       0.00011592      -0.00033534
Cu       3.86510814      17.54826209       1.94371283       2.42003028       0.00015525       0.00061008      -0.00016843
Cu       5.83087117      15.78250275       1.99197114       2.88477148       0.00085966       0.00084565      -0.00121760
Au       5.77881231      17.51735804       0.04723854      -0.55276741       0.00072662      -0.00006053       0.00001584
Al       3.86213534      15.77583806       3.96435936      -2.67757818       0.00023326       0.00103204      -0.00050680
Cu       3.91671692      17.69106491       5.93441119       2.90244915       0.00047982       0.00127938       0.00015435
Al       5.82896681      15.69094549       5.84784666      -2.31761517      -0.00044182       0.00054290       0.00023121
Cu       5.79007328      17.68877276       3.91800370       2.60228720       0.00085493       0.00097012       0.00044399
Au       3.82326597      15.71676189       7.86851723      -1.00285921       0.00089596       0.00117239      -0.00108529
Cu       3.81900681      17.57920857       9.81392322       2.18802604       0.00056434       0.00133099      -0.00003932
Cu       5.69037785      15.76384251       9.85948605       2.23387812       0.00004099       0.00088225      -0.00030488
Au       5.80424727      17.63689936       7.85084643      -0.27157461       0.00016217       0.00096541      -0.00009663
Cu       3.79550596      15.71300499      11.69261652       1.55034265       0.00004615       0.00143451      -0.00006554
Au       3.80941323      17.52866701      13.61998075      -1.13506553      -0.00014390      -0.00088920      -0.00064360
Al       5.77620988      15.64041353      13.66521874      -3.81044559      -0.00051061       0.00096047      -0.00002502
Cu       5.78718401      17.51102174      11.71909399       2.48657643      -0.00029522       0.00120915      -0.00045692
Au       7.82656126      -0.03900636       0.00443684       0.16627159       0.00079402       0.00018043       0.00041168
Au       7.76686055       1.88193908       1.99085336      -0.44578084       0.00105726       0.00029348      -0.00013767
Cu       9.77319415       0.04628990       1.94187490       2.32802668       0.00079897      -0.00001114       0.00051425
Cu       9.79207372       1.86072925       0.06366320       2.56434735       0.00111033       0.00111806       0.00058302
Cu       7.75322939       0.03125221       3.92170469       2.22619196       0.00026093       0.00001826       0.00064107
Cu       7.75718453       1.87573396       5.77735256       2.50287271       0.00010468      -0.00119731       0.00046868
Al       9.79065011      -0.04467210       5.81700753      -2.56285870       0.00048639       0.00043452      -0.00054547
Au       9.76928578       1.87749463       3.84713321      -0.65867350       0.00175474      -0.00039444      -0.00045765
Al       7.83250697      -0.05724162       7.84619531      -2.28384491       0.00015449       0.00052533       0.00031399
Cu       7.84437878       1.94514740       9.79453727       3.44526928       0.00004727       0.00002849      -0.00074648
Al       9.80831388      -0.04539427       9.82491856      -1.74832764       0.00018185      -0.00036120      -0.00130584
Au       9.77338827       1.93414917       7.79259982       0.77375793      -0.00008220       0.00007025      -0.00045752
Au       7.80813854       0.04257989      11.72697814       0.06645353       0.00016016       0.00029468       0.00063906
Au       7.75230958       1.99388948      13.73508385       0.02570266       0.00043672      -0.00059660       0.00041236
Au       9.85584431       0.04274573      13.76576181       0.10135875       0.00058489       0.00077191       0.00216646
Au       9.84875813       2.03531871      11.77491997       0.73474224       0.00029841      -0.00045737       0.00026620
Al       7.72122005       3.91937246       0.07611453      -2.36559291       0.00127565      -0.00007504       0.00043274
Al       7.74804709       5.92480277       1.98213171      -2.52012436      -0.00079419       0.00090480      -0.00064223
Al       9.76774572       3.91401238       1.91053450      -2.25414833      -0.00018170      -0.00038622      -0.00047777
Au       9.76263242       6.07490143       0.07462894       0.63129374      -0.00030226       0.00028933      -0.00015923
Au       7.74007352       3.84245796       3.91916532       0.01890921      -0.00068666      -0.00049579       0.00008670
Au       7.84727174       5.97312150       5.84781832       0.32034604      -0.00122357      -0.00055502       0.00121917
Au       9.80396624       3.91414142       5.79778135      -0.28550799      -0.00045061      -0.00100665       0.00110948
Au       9.79942695       5.97353195       3.89184380      -0.51274154      -0.00026767       0.00103238       0.00184855
Au       7.81282090       3.84607499       7.77113151       0.73769499       0.00012516      -0.00124486      -0.00009081
Al       7.80413737       5.89368507       9.77951357      -1.29747687       0.00036892      -0.00050162       0.00006669
Al       9.82005178       3.92968455       9.75783969      -2.24934179       0.00037609       0.00009672      -0.00009163
Au       9.87829482       5.95036707       7.74039410       0.63628051      -0.00009677      -0.00136347       0.00137737
Al       7.77499598       3.91260391      11.75134736      -2.34862550       0.00070952      -0.00039995      -0.00037515
Au       7.76564007       5.93364899      13.73884764       0.18836688      -0.00073783      -0.00111481       0.00011510
Au       9.79277747       3.92245377      13.85374822       0.52221985       0.00038621      -0.00013496      -0.00024649
Au       9.82636114       5.83256260      11.78031034       1.36457616       0.00035243      -0.00043665       0.00007517
Cu       7.71843530       7.87349025      -0.02254715       2.97215640      -0.00036023       0.00015981      -0.00077975
Al       7.84026570       9.82987655       1.99432550      -3.23949052      -0.00090923      -0.00038685       0.00066329
Cu       9.77296251       7.88373784       1.99198414       2.96935215       0.00030549      -0.00155388       0.00138265
Au       9.72161188       9.75439681       0.03588414      -0.83720017      -0.00089142      -0.00100877       0.00096966
Cu       7.88072055       7.86493137       3.95410402       3.10424238       0.00025928       0.00052015       0.00161869
Au       7.85288492       9.77501489       5.85232728       0.40493948      -0.00115556       0.00070077       0.00139471
Cu       9.84597022       7.84431001       5.79854992       2.99162907       0.00005615      -0.00092500       0.00026216
Au       9.78953499       9.77543049       3.91714443      -0.88261808      -0.00039684      -0.00157202       0.00009390
Al       7.81373417       7.92459247       7.92022968      -1.87936277       0.00037853      -0.00133331       0.00076599
Cu       7.72007943       9.92438561       9.91199117       3.04192786      -0.00066079       0.00076917      -0.00100951
Al       9.86013126       7.87792501       9.80997510      -1.76487685      -0.00036661       0.00014201       0.00064528
Al       9.84187429       9.75494775       7.85549679      -2.21675525      -0.00122114       0.00022922       0.00104695
Au       7.73535254       7.93731557      11.71168937       0.14751606      -0.00108638       0.00011065      -0.00016511
Au       7.73836254       9.83719763      13.68806483      -0.55109904      -0.00081679       0.00126111      -0.00089867
Al       9.78079427       7.87925111      13.68196466      -2.64004634      -0.00022109      -0.00017146      -0.00078434
Au       9.80725467       9.90376576      11.71717489       0.53083136      -0.00045924      -0.00090017       0.00016857
Au       7.86180731      11.86458023      -0.05120576      -0.82866573       0.00013793       0.00052459      -0.00098545
Al       7.86699933      13.72120399       1.96110360      -2.87425755       0.00017200      -0.00044686      -0.00030127
Cu       9.82583122      11.77723039       1.98950935       2.67485696       0.00163515       0.00114678       0.00023751
Cu       9.76618387      13.68229613      -0.05609649       2.59921717      -0.00143406       0.00083292      -0.00079700
Cu       7.87302303      11.81384452       3.94923081       3.05747101      -0.00036324       0.00028738       0.00093453
Cu       7.86676640      13.67096456       5.88382703       3.30775324       0.00014140      -0.00071708       0.00108809
Al       9.80826333      11.74022642       5.91576032      -2.72929248      -0.00041426       0.00143426       0.00088414
Au       9.82852738      13.65256041       3.90712722      -0.02942091      -0.00175631       0.00061886       0.00059533
Au       7.77628114      11.77365251       7.94806014       0.49655200       0.00038284       0.00099661       0.00052719
Al       7.75606299      13.80716407       9.85150447      -2.31601331      -0.00037526       0.00061350       0.00054593
Au       9.86139097      11.80573266       9.76698543       0.51952741      -0.00042394       0.00142305       0.00099270
Au       9.83690988      13.78635616       7.82248347       0.47695594      -0.00126356       0.00131506      -0.00060901
Al       7.77944759      11.86206987      11.77736077      -3.06947406      -0.00011362       0.00133493      -0.00042469
Cu       7.83625075      13.77441158      13.75789175       2.51866541      -0.00041225       0.00033496      -0.00024669
Cu       9.75517217      11.74808749      13.78587462       3.05952365      -0.00073025      -0.00011926      -0.00105338
Al       9.77536959      13.73583574      11.82290196      -2.04707444       0.00074978      -0.00024944      -0.00001644
Au       7.86545677      15.63733648       0.01836118      -0.19339622       0.00037085       0.00065766      -0.00003670
Au       7.80978777      17.67921623       2.08623486      -0.54491887       0.00056207      -0.00043434       0.00027289
Al       9.85266679      15.66844197       2.00463441      -2.22007067       0.00044566      -0.00055351       0.00007353
Al       9.78650001      17.63369161       0.02877464      -2.52225683      -0.00021002       0.00019779       0.00095177
Al       7.83895498      15.68453363       3.92070053      -2.33950013      -0.00030256       0.00034125       0.00015335
Au       7.74835815      17.72479489       5.72728308       0.09293308       0.00097905       0.00042882       0.00019990
Al       9.82289492      15.72529115       5.77836899      -2.15925620      -0.00058261       0.00160979       0.00045371
Cu       9.79966361      17.76899883       3.81064187       3.11122868      -0.00013749       0.00011641       0.00041171
Au       7.77684094      15.67105424       7.77742150       1.06729119       0.00009299       0.00135412      -0.00050606
Au       7.73768194      17.47226042       9.92824369       0.24594160      -0.00019400       0.00120203      -0.00110733
Al       9.83955910      15.61822898       9.85221671      -1.94997569       0.00064446      -0.00015716       0.00014578
Al       9.80058180      17.55531646       7.82961408      -1.54575264       0.00042415       0.00159893      -0.00066346
Cu       7.73233238      15.61687568      11.83566417       2.95089123      -0.00103421       0.00132019      -0.00038172
Au       7.80220370      17.54852243      13.62811856      -0.22376344       0.00016162       0.00099895       0.00051734
Cu       9.68455374      15.61133402      13.75825180       3.06024992      -0.00035453       0.00030168      -0.00133007
Al       9.86070106      17.54321137      11.82362348      -2.05521676       0.00000425       0.00024947       0.00011013
Cu      11.71909418       0.12066702       0.04416841       2.53696618      -0.00035741       0.00089762       0.00074818