399
Lattice="19.59262691714357 -0.0029401591670048664 0.00043227724696582155 -0.0029405439160256983 19.594541571232078 0.002722427805357169 0.0003459403246241731 0.002177382872289726 15.670877927394494" Properties=species:S:1:pos:R:3:energies:R:1:forces:R:3 energy=11.965045836729562 free_energy=11.965045836729562 stress="0.00044963437339201406 9.979815618551071e-05 5.25806968966715e-05 9.979815618551071e-05 3.976741595577402e-05 -3.440013572906585e-05 5.25806968966715e-05 -3.440013572906585e-05 0.0006640200695973022" pbc="T T T"
Au      -0.01827331       0.04234711       0.06170343      -1.22719090       0.00027772      -0.00074917      -0.00044221
Cu      -0.08441894       1.89854666       1.89398256       2.72794052      -0.00016930      -0.00020237      -0.00078081
Cu       2.03407711      -0.04514038       1.95083340       3.20902986       0.00015456      -0.00135653      -0.00027696
Al       1.95929663       1.93502884       0.11641521      -3.31700433      -0.00021955       0.00050516      -0.00105847
Al      -0.06979212      -0.02257290       3.85573838      -2.46856339       0.00004769      -0.00117840      -0.00174919
Al      -0.07953172       1.97431771       5.79554237      -1.87781985      -0.00082934       0.00018181      -0.00099138
Al       1.90310758      -0.00813934       5.82910662      -2.18640265       0.00053701       0.00022981      -0.00032934
Al       1.90231987       1.89062706       3.78747830      -2.80668449       0.00093682       0.00006697      -0.00000433
Al      -0.07811029      -0.02295366       7.75222950      -2.47477514       0.00097418       0.00074084      -0.00023552
Au       0.00236968       1.92895013       9.75886922      -0.02292940       0.00055151      -0.00020173      -0.00063934
Cu       1.87333589      -0.11140778       9.80785112       2.18343660       0.00027290       0.00080615      -0.00018399
Au       1.95028176       1.90148869       7.87399361      -0.58954898       0.00043972       0.00032904      -0.00064246
Cu       0.02939616      -0.11665658      11.74363423       2.00602851       0.00098075      -0.00083005       0.00034869
Cu       0.00460790       1.89051996      13.78509177       2.56484734      -0.00048212      -0.00006726      -0.00108728
Au       1.87672777      -0.03914484      13.67232188      -0.28073069       0.00078849      -0.00061003       0.00017664
Au       1.89695734       1.86993321      11.69196422      -0.88079296       0.00033688      -0.00019261       0.00075106
Cu       0.02460420       3.84272713       0.09386138       2.22817653      -0.00043146       0.00084248      -0.00042888
Cu      -0.08794317       5.78838857       1.85748555       2.74993256      -0.00076280      -0.00053630      -0.00057912
Cu       1.88147398       3.84429014       1.93448725       2.86796535      -0.00021274       0.00123953      -0.00108535
Au       1.93666143       5.78011201       0.07584946      -0.35240980       0.00109723       0.00020114      -0.00135420
Al      -0.05404620       3.86358577       3.80017116      -2.51771681      -0.00111377      -0.00013649      -0.00171862
Au       0.00395130       5.76069104       5.91513777       0.14660873       0.00057712       0.00149238      -0.00072715
Au       2.02437920       3.77823031       5.80893669       0.33152688      -0.00099836       0.00067964      -0.00060085
Al       1.91092976       5.76871215       3.82402087      -2.29272420      -0.00039192       0.00038821      -0.00000757
Cu       0.11383704       3.87010836       7.82207823       3.32027448       0.00103846       0.00111992      -0.00059531
Au       0.05655851       5.83068711       9.71241995       0.58361142       0.00004263       0.00082025      -0.00033571
Cu       1.96164697       3.83291235       9.79987973       2.85826578      -0.00018705       0.00125797      -0.00047292
Al       1.98185789       5.85659445       7.82366990      -3.21764651      -0.00020985       0.00180523      -0.00027964
Au       0.01289999       3.90667557      11.77664589       0.30081503      -0.00033720       0.00038909      -0.00055816
Au      -0.03069130       5.84910348      13.84531257       0.38784526       0.00040469       0.00016870      -0.00136382
Au       1.91993767       3.83553634      13.78475328       0.18559191      -0.00035903      -0.00050309       0.00057355
Al       1.98515923       5.86594760      11.81792178      -2.75883964      -0.00149884       0.00058256      -0.00033477
Al       0.01254009       7.82859977       0.06716956      -2.94908878      -0.00054327       0.00122865      -0.00059370
Au       0.04403263       9.79597719       2.05849678      -0.06102181      -0.00041666       0.00064743      -0.00103434
Al       1.94365240       7.83621564       1.94618347      -2.39506953      -0.00003942      -0.00005544      -0.00015927
Cu       1.98431937       9.85424203       0.01722352       3.01114985       0.00013203      -0.00010887      -0.00067694
Al       0.05825149       7.76410338       3.95392953      -2.58827856      -0.00012453       0.00079790      -0.00085877
Al       0.05328925       9.75169596       5.92716532      -2.70625216      -0.00000316      -0.00059917       0.00064182
Cu       1.95890112       7.80568219       5.93030992       3.14156424      -0.00096870       0.00085448       0.00076941
Cu       1.92815576       9.90570573       3.93506625       3.07458069      -0.00006562       0.00017995       0.00028074
Cu       0.00001458       7.72935169       7.76673394       3.56178742      -0.00000414       0.00094622       0.00002612
Al       0.01521725       9.79982774       9.71234188      -2.22916683       0.00051703      -0.00031415      -0.00001881
Al       2.01869816       7.90285188       9.78787411      -2.20495593       0.00031114       0.00152370       0.00076740
Al       1.99561974       9.79016729       7.89465186      -2.11888314      -0.00045845      -0.00029126       0.00049665
Al       0.09240153       7.85478988      11.74535736      -2.15374003       0.00131403       0.00039948      -0.00162570
Au       0.17619307       9.79969595      13.69224751       0.01293486      -0.00055896       0.00051885      -0.00075720
Cu       1.96663899       7.81580071      13.78742552       3.07237583      -0.00004653       0.00044429      -0.00097410
Cu       2.02489549       9.93205029      11.72895756       2.93518118      -0.00157703      -0.00040279       0.00086608
Al       0.09916647      11.86260364      -0.02646164      -3.03096231      -0.00004079       0.00042172       0.00026013
Cu       0.08242965      13.78808257       2.02540241       2.85710597      -0.00011121       0.00004670       0.00016267
Au       1.89151246      11.80968552       1.99326085      -1.07985103       0.00039357      -0.00073660      -0.00012059
Cu       1.99235430      13.84185988      -0.06360518       2.21084000      -0.00006191       0.00166150      -0.00015576
Cu       0.01398111      11.81003149       3.97883573       2.74628826      -0.00052100       0.00028627       0.00055350
Au       0.01861855      13.81775126       6.07383650      -1.60772475      -0.00054046      -0.00115256       0.00084551
Au       1.86327844      11.80588648       5.94473892       0.07369338      -0.00038305      -0.00067335      -0.00126103
Au       1.86031319      13.81133003       3.96366918      -0.40972594      -0.00034472      -0.00098291      -0.00034228
Cu       0.03314640      11.89650700       7.88845756       3.23785325       0.00078270      -0.00178133       0.00100764
Au      -0.04870472      13.79081507       9.69955582      -2.02263797       0.00067353      -0.00044205       0.00096271
Au       2.02534281      11.87083701       9.82115887      -1.42328863      -0.00134113      -0.00113288       0.00119454
Cu       1.92085089      13.82325706       7.91794721       2.64836540       0.00096761      -0.00127099      -0.00016548
Au       0.01575955      11.80256968      11.66550190      -0.45146456       0.00032060      -0.00049285       0.00087821
Au       0.03856559      13.82865238      13.59207826      -0.68009902       0.00082860       0.00074512      -0.00035406
Au       2.02684220      11.90261192      13.60537874      -1.28266149       0.00052676      -0.00025733       0.00178156
Cu       2.04203245      13.79034945      11.72403630       1.97957750      -0.00050590       0.00013080       0.00090537
Au       0.06518792      15.60667516      -0.00470101      -0.52797574       0.00097460       0.00056859      -0.00075067
Al      -0.00718249      17.67995155       1.98711477      -2.49877125      -0.00111155       0.00024174      -0.00096449
Cu       1.90510203      15.65941121       1.92063549       2.71048075       0.00039872      -0.00018200      -0.00018243
Au       1.96754812      17.56721121       0.05443180      -1.23997429      -0.00004557      -0.00077308       0.00013870
Au       0.00603137      15.78751177       3.96870361      -0.32477927       0.00039180      -0.00159826       0.00058274
Cu      -0.09709560      17.59823499       5.87719134       2.87280664       0.00121347      -0.00158052       0.00026537
Cu       1.85106305      15.76924584       5.99973882       2.61844471      -0.00044113      -0.00163241       0.00003697
Al       1.96659691      17.65209630       3.93263347      -2.63694662       0.00038862       0.00035553      -0.00190955
Cu       0.01332259      15.73036408       7.91161697       2.22416906      -0.00024856      -0.00151002       0.00010735
Cu      -0.00376614      17.60166777       9.82763832       2.16355917       0.00117154      -0.00094225       0.00009089
Au       1.93500556      15.71485217       9.84543874      -2.44681264       0.00100436      -0.00073133       0.00038504
Au       1.84729301      17.64377075       7.84501727      -1.57319480       0.00017114       0.00027009      -0.00023035
Al      -0.06862075      15.70549449      11.67660939      -4.10927455       0.00023801      -0.00166905       0.00039758
Au      -0.00584145      17.57840091      13.64949800      -1.36521164      -0.00012530       0.00007954       0.00118522
Cu       1.98592044      15.65639669      13.65628773       1.87568422       0.00050634      -0.00037646       0.00091488
Cu       1.90724924      17.62530306      11.69571567       2.01010779       0.00124387      -0.00026628      -0.00005470
Au       3.86713090      -0.05195149       0.07630295       0.11851103       0.00001124      -0.00034689       0.00088384
Cu       3.90658501       1.93535373       2.06398377       2.58544665      -0.00080628       0.00093812       0.00033320
Al       5.79977169      -0.03471543       2.00254970      -3.47856122       0.00053894       0.00135936      -0.00090819
Al       5.79727521       1.93965963       0.03250967      -2.29664034      -0.00017199      -0.00009465       0.00043024
Au       3.92556050      -0.03029104       3.91733569      -1.42919143      -0.00212737       0.00034945       0.00145618
Cu       3.94240072       1.85842820       5.84349021       2.67460843       0.00059022       0.00097190      -0.00049090
Cu       5.80613205      -0.01406087       5.79096770       1.88323135      -0.00018173       0.00071304       0.00007846
Cu       5.80824468       1.88375512       3.95546562       1.75674620      -0.00037981       0.00022642       0.00125071
Au       3.85859049      -0.03901446       7.87219389      -0.98335235       0.00029464       0.00052826       0.00013475
Cu       3.82745110       1.92636633       9.79933841       2.86731434      -0.00070486       0.00057668      -0.00014936
Al       5.83810749       0.00255042       9.84830946      -2.96376522      -0.00098860       0.00075235      -0.00062690
Au       5.87496752       1.84295797       7.76050730      -0.28792240      -0.00099590       0.00162735       0.00048126
Al       3.87738571      -0.06265405      11.65764502      -3.29103432      -0.00077942       0.00071344       0.00005630
Al       3.92321073       1.90159908      13.70472406      -2.31069962       0.00054436       0.00172340       0.00065815
Au       5.82666924      -0.10770181      13.64800567       0.26156754       0.00023906       0.00077619      -0.00179720
Cu       5.87604210       1.95127354      11.78633614       3.12010945      -0.00134505       0.00140943      -0.00014682
Al       3.94207722       3.85245418       0.07234088      -2.54091073      -0.00004454       0.00144901       0.00093426
Al       3.91366774       5.77677618       2.01672725      -2.26763447       0.00039847       0.00008655      -0.00160451
Cu       5.78460227       3.74112430       2.11793544       2.95591703      -0.00103151       0.00111819      -0.00017975
Au       5.78883522       5.90220089      -0.05380908      -0.21141141      -0.00051186       0.00014337      -0.00050579
Cu       3.89132595       3.72225786       3.87538982       2.40466267      -0.00140872       0.00213040      -0.00182955
Au       3.83189773       5.89735297       5.82787076       0.52426344      -0.00112887       0.00180412       0.00054501
Al       5.78190270       3.86567620       5.82588229      -3.01446455      -0.00184969       0.00113891      -0.00054197
Al       5.81069235       5.87647392       3.90458121      -2.36502098      -0.00042868       0.00086685      -0.00062699
Au       3.89583070       3.80404140       7.87084853       0.12079525      -0.00092289       0.00160392      -0.00023377
Au       3.87541469       5.85947124       9.79803193       0.99875078      -0.00136998       0.00066873       0.00061740
Al       5.87741762       3.80681823       9.80477954      -2.35828051      -0.00116377       0.00193104       0.00065903
Al       5.84074643       5.87777398       7.84447907      -2.05058004      -0.00169097       0.00152841       0.00051556
Au       3.91452021       3.82675977      11.75894226      -0.29713629      -0.00135195       0.00081955       0.00059278
Cu       3.87295600       5.88186653      13.76791972       2.76653729      -0.00106534       0.00081566       0.00009317
Cu       5.80063804       3.94760019      13.67892131       3.26931942      -0.00066259       0.00024492       0.00011607
Al       5.79639758       5.90109371      11.79057854      -2.60546211      -0.00002753      -0.00072942       0.00084527
Au       3.83687762       7.87713498      -0.06305650      -0.78461489       0.00055280       0.00065153      -0.00126154
Cu       3.81828363       9.86903140       1.91390233       2.79788578      -0.00016059       0.00033014       0.00059187
Au       5.80176849       7.90291447       1.96348715       0.53713002      -0.00122997       0.00088861      -0.00042680
Au       5.82195835       9.83157524      -0.01442756      -0.32576522       0.00040847       0.00110502       0.00053178
Au       3.75609778       7.96917970       3.92344220       0.48837960       0.00045445       0.00027836       0.00023393
Al       3.84081373       9.84027374       5.93817812      -2.31098931      -0.00108821      -0.00113212       0.00047296
Au       5.81359214       7.87337395       5.87965589       0.91424880       0.00094079       0.00143130       0.00110202
Al       5.86750882       9.83146496       3.91045061      -2.71883348       0.00067999      -0.00018800       0.00073499
Cu       3.90572745       7.82182849       7.81683002       3.44747643      -0.00165523       0.00086992       0.00123169
Cu       3.90750864       9.91901847       9.98555481       2.42198553      -0.00047939      -0.00000048       0.00165316
Au       5.72091128       7.98841742       9.82561006      -0.03016195      -0.00034287      -0.00004062       0.00188983
Al       5.77535019       9.87825294       7.91152468      -2.53296191      -0.00104329       0.00009609      -0.00027282
Au       3.86496857       7.92083779      11.88395121      -0.66953664      -0.00032324       0.00026884       0.00030249
Al       3.87376327       9.89114569      13.67810670      -3.72213088      -0.00062434       0.00015945       0.00105483
Cu       5.84773685       7.88130017      13.73668939       2.72121462       0.00108526       0.00044745       0.00063002
Cu       5.80069013       9.88112596      11.75113930       2.18825818       0.00033800      -0.00062770       0.00173461
Au       3.81319963      11.85914708       0.01410739      -0.60971309      -0.00115340      -0.00007281       0.00039236
Al       3.85542448      13.85687382       1.98679659      -3.26737877       0.00144225       0.00136950       0.00163721
Au       5.85259513      11.78364610       1.96031692       0.49197667       0.00182853      -0.00091344       0.00013662
Au       5.79198327      13.86078243       0.01472232      -0.29200922       0.00012120      -0.00130131      -0.00080985
Au       3.84941625      11.75537354       3.92190363       0.35341107      -0.00010608      -0.00084450       0.00050909
Al       3.83156928      13.77882029       5.91337400      -2.21385068       0.00063703      -0.00095407      -0.00028532
Au       5.93748776      11.83358041       5.86388633       0.75497397       0.00022331      -0.00147955      -0.00019744
Au       5.91850137      13.75132044       3.90306070       0.71123290      -0.00077320      -0.00124559       0.00068447
Al       3.90632072      11.85128464       7.91486425      -2.23698413      -0.00036854      -0.00106780       0.00034550
Cu       3.83888761      13.82874344       9.85880331       2.19932643       0.00010375       0.00024012       0.00051609
Cu       5.75664919      11.75731896       9.94667563       2.35726707       0.00042382       0.00098651       0.00001196
Al       5.80505446      13.75576778       7.95534776      -2.41131385       0.00115861      -0.00044325      -0.00078822
Cu       3.90007443      11.88573861      11.69785560       1.82246564      -0.00115369       0.00043779       0.00036658
Cu       3.80730851      13.83450677      13.67288102       1.89376396       0.00044978       0.00019754       0.00063293
Au       5.77614391      11.93133791      13.66081652      -0.55009861       0.00151699      -0.00049153      -0.00070831
Au       5.70822985      13.83240451      11.68394170      -1.69559273       0.00108896      -0.00023634      -0.00032865
Cu       3.79473315      15.68336764      -0.00102652       2.12562716       0.00026987      -0.00043343       0.00080106
Cu       3.86491908      17.54905531       1.94443932       2.42579887       0.00013361      -0.00048136       0.00134899
Cu       5.82950742      15.78168819       1.99702679       2.90521948      -0.00010043      -0.00110056       0.00078641
Au       5.77840391      17.51369268       0.05185461      -0.56179232       0.00061543       0.00131339      -0.00007607
Al       3.86159637      15.77435136       3.96316541      -2.68642934       0.00184561      -0.00011418      -0.00052652
Cu       3.91601453      17.69127740       5.93457055       2.90061249       0.00002956      -0.00014707      -0.00033548
Al       5.82753914      15.69021122       5.84766069      -2.31916397      -0.00105390      -0.00083188       0.00029682
Cu       5.78085129      17.69041736       3.92345176       2.61433642       0.00007194      -0.00014720       0.00136484
Au       3.82691871      15.71801505       7.87084754      -1.00659467       0.00066681      -0.00038545      -0.00134896
Cu       3.82436464      17.58084754       9.81655236       2.19129531       0.00022692       0.00038982      -0.00010026
Cu       5.69371580      15.76653233       9.86235782       2.23727887      -0.00038143      -0.00037020       0.00101594
Au       5.80419017      17.63834821       7.84953822      -0.27145994      -0.00019809       0.00006766       0.00015529
Cu       3.80228369      15.71763166      11.69532310       1.54821091       0.00099145      -0.00098640      -0.00008938
Au       3.81342614      17.52760036      13.62112298      -1.14102572       0.00062339       0.00023452       0.00119639
Al       5.79267358      15.64832017      13.67385011      -3.80141925      -0.00104404      -0.00060767       0.00060093
Cu       5.80039245      17.51171588      11.72733751       2.48264921       0.00059975      -0.00066538       0.00106180
Au       7.83564300      -0.05530758       0.01222305       0.13236878       0.00210184       0.00029102       0.00442951
Au       7.75973227       1.88063299       1.98986151      -0.45471585       0.00198399      -0.00155834       0.00013319
Cu       9.75319089       0.05404798       1.95423552       2.27260785      -0.00272305      -0.00020190      -0.00163762
Cu       9.79479546       1.85056502       0.06563143       2.57894828      -0.00066843      -0.00109772      -0.00106165
Cu       7.74294898       0.03406649       3.92546853       2.22963802      -0.00073867       0.00171843       0.00153632
Cu       7.75717230       1.87262501       5.77778622       2.50932305      -0.00048358       0.00022043       0.00039151
Al       9.79112622      -0.05273206       5.80866470      -2.56702255       0.00037298       0.00022228      -0.00029288
Au       9.77277873       1.86385814       3.84562799      -0.69269874      -0.00124218       0.00265082      -0.00083253
Al       7.83153780      -0.05669222       7.84204553      -2.29067924      -0.00096752       0.00169944      -0.00027042
Cu       7.84584768       1.93906441       9.79692728       3.44731150      -0.00002772       0.00272850      -0.00053154
Al       9.80388991      -0.04331071       9.82044642      -1.75502857      -0.00075616      -0.00006873       0.00143535
Au       9.77431447       1.92786176       7.78523608       0.77759025      -0.00056577       0.00063875      -0.00039252
Au       7.81143405       0.03321617      11.73293380       0.06564148      -0.00121873       0.00101708       0.00099087
Au       7.75885291       1.98207482      13.74159461       0.02749938      -0.00227756       0.00124240      -0.00194594
Au       9.86344144       0.02718672      13.77934662       0.08876514       0.00124297      -0.00008178       0.00115110
Au       9.84694168       2.02479775      11.77823784       0.73479774      -0.00041827      -0.00123118      -0.00123788
Al       7.71846028       3.91789621       0.07107687      -2.36357136      -0.00021721       0.00008258       0.00071536
Al       7.74677889       5.92430816       1.97965008      -2.51439726       0.00030626       0.00085534      -0.00051702
Al       9.75430060       3.89963466       1.90778580      -2.25711510       0.00054780      -0.00160498       0.00229165
Au       9.75300090       6.07248807       0.06720907       0.64414205       0.00088660      -0.00083714       0.00033104
Au       7.73782509       3.83696909       3.92017230       0.01355765       0.00109386      -0.00183125       0.00016666
Au       7.84359323       5.96817230       5.85503011       0.33110422      -0.00131219       0.00089121       0.00046254
Au       9.80199413       3.90061155       5.79790589      -0.29022318      -0.00084366      -0.00042806      -0.00095588
Au       9.78318884       5.96193810       3.89835271      -0.49025084       0.00030233       0.00127206      -0.00066457
Au       7.81457756       3.84161761       7.77471611       0.73966526      -0.00025435       0.00015494       0.00034502
Al       7.80726885       5.89275538       9.78067407      -1.29815368      -0.00070286      -0.00011257       0.00060478
Al       9.82065120       3.92197464       9.75840847      -2.25207944      -0.00042971       0.00170515      -0.00059516
Au       9.88225225       5.94365465       7.74045215       0.62496861      -0.00110229      -0.00063865      -0.00084299
Al       7.77784572       3.90765122      11.75375077      -2.35212519      -0.00097607      -0.00048439      -0.00025769
Au       7.76613295       5.93587651      13.73451191       0.19177168      -0.00031185      -0.00159379      -0.00047314
Au       9.78967729       3.91639405      13.84901690       0.53406974       0.00018090       0.00052344      -0.00024449
Au       9.82728941       5.83254399      11.77634322       1.36628314       0.00044450      -0.00160145       0.00065618
Cu       7.71880468       7.87585038      -0.02384454       2.97494919       0.00026579      -0.00006978       0.00019623
Al       7.84308194       9.82725159       1.99375151      -3.23321044       0.00127064       0.00058588       0.00147415
Cu       9.78302258       7.88158063       1.99418025       2.94869374       0.00175335      -0.00036921      -0.00034790
Au       9.73008877       9.75277807       0.04274656      -0.83388534       0.00016745      -0.00085849       0.00123464
Cu       7.88107468       7.86430065       3.95613421       3.09853934       0.00039567       0.00002366       0.00022329
Au       7.85177746       9.77573283       5.85154949       0.40096685      -0.00110124      -0.00036580       0.00051630
Cu       9.83847760       7.84346765       5.80353061       2.99485004       0.00037111      -0.00063230       0.00014150
Au       9.79250529       9.77540322       3.91623131      -0.88063768      -0.00018032       0.00003974      -0.00057900
Al       7.81540691       7.92449883       7.92140416      -1.87822780      -0.00057356       0.00108287       0.00200094
Cu       7.72562958       9.92757623       9.91851872       3.03073211      -0.00054072      -0.00141126      -0.00109628
Al       9.86339874       7.88142749       9.80982322      -1.76527900       0.00009343      -0.00161152       0.00040327
Al       9.84589831       9.75515940       7.85359453      -2.20884844       0.00103224      -0.00156438      -0.00087739
Au       7.74009539       7.94153404      11.71339165       0.13930475       0.00075797      -0.00021743       0.00284844
Au       7.74429864       9.84017942      13.69424380      -0.55013062      -0.00009820       0.00112249       0.00002454
Al       9.78717684       7.88260987      13.68275361      -2.63562800       0.00071864       0.00015137       0.00160552
Au       9.81971699       9.90409394      11.73131475       0.53202203       0.00114519       0.00066513       0.00046596
Au       7.87679434      11.87083150      -0.04558403      -0.83148412      -0.00040460      -0.00059404       0.00018527
Al       7.88625284      13.73851471       1.96293426      -2.88216494       0.00163175       0.00010540      -0.00068468
Cu       9.83027701      11.77633411       1.99518519       2.67091392      -0.00053765       0.00044048       0.00117905
Cu       9.77963950      13.70033976      -0.04203711       2.58126006      -0.00151065       0.00140795       0.00027466
Cu       7.87485816      11.81511451       3.94763472       3.05149697      -0.00021142      -0.00176947      -0.00063467
Cu       7.86482995      13.66733893       5.88782583       3.31918119      -0.00023885      -0.00035463       0.00103504
Al       9.80773690      11.73606334       5.91827370      -2.72661350      -0.00029765      -0.00100421       0.00080079
Au       9.82468924      13.65763476       3.91774816      -0.03717951       0.00120552      -0.00053591      -0.00083960
Au       7.77544006      11.77105628       7.95243104       0.48824474       0.00120365       0.00087278      -0.00002833
Al       7.75561168      13.80827029       9.85853254      -2.31555653       0.00155418      -0.00005615       0.00063809
Au       9.86117611      11.80244026       9.77601913       0.50615352       0.00127611       0.00022810      -0.00026071
Au       9.83193858      13.77912426       7.82769939       0.48271464      -0.00107672      -0.00033713       0.00319504
Al       7.78664500      11.86609327      11.78841156      -3.05434933       0.00002856       0.00000676      -0.00008887
Cu       7.85423904      13.79191241      13.77589602       2.50228328      -0.00051349       0.00128843      -0.00044037
Cu       9.76606015      11.74828056      13.79164592       3.06956919       0.00001005       0.00060980      -0.00098713
Al       9.77499077      13.74372394      11.82990140      -2.03597267      -0.00128293      -0.00165059      -0.00136038
Au       7.90068666      15.66682886       0.04007994      -0.21338193       0.00080642       0.00019207       0.00121586
Au       7.78957728      17.67855776       2.09969119      -0.58672538       0.00368042       0.00100135      -0.00041366
Al       9.89640450      15.71811093       2.04438388      -2.19955143      -0.00304691      -0.00239666       0.00514819
Al       9.89584175      17.67097644       0.14263142      -2.50183993      -0.00360383       0.00218494      -0.00047417
Al       7.83652196      15.68227991       3.92798348      -2.34126282       0.00241465       0.00145625      -0.00195004
Au       7.74372729      17.72488234       5.72731672       0.08666404      -0.00035202       0.00047604       0.00086591
Al       9.81417761      15.72547173       5.79405078      -2.17426184       0.00068160      -0.00046907      -0.00256396
Cu       9.78472686      17.76663609       3.81711559       2.98487843      -0.00272313      -0.00061574      -0.00019679
Au       7.77302817      15.66852434       7.77920511       1.07207431      -0.00070396      -0.00050226       0.00096663
Au       7.73705524      17.47326512       9.92362988       0.25194912      -0.00129710       0.00028487       0.00037224
Al       9.83688465      15.61576891       9.84777688      -1.95350451      -0.00136881       0.00051658       0.00148912
Al       9.79175603      17.55867993       7.83423254      -1.54642619       0.00033685       0.00175058       0.00005918
Cu       7.74035878      15.62790802      11.84348743       2.94722407       0.00063441      -0.00169813      -0.00063507
Au       7.83229218      17.55151589      13.65492667      -0.25547653      -0.00058349       0.00053216      -0.00139666
Cu       9.70241164      15.63648512      13.77118921       3.06238869      -0.00146751      -0.00211932       0.00003570
Al       9.85468661      17.54494932      11.80807922      -2.07219569      -0.00163017      -0.00119186      -0.00092321
Cu      11.73098602       0.10466407       0.06711626       2.28649909       0.00000443       0.00013118      -0.00150383