399
Lattice="19.59262691714357 -0.0029401591670048664 0.00043227724696582155 -0.0029405439160256983 19.594541571232078 0.002722427805357169 0.0003459403246241731 0.002177382872289726 15.670877927394494" Properties=species:S:1:pos:R:3:energies:R:1:forces:R:3 energy=11.892671479370392 free_energy=11.892671479370392 stress="0.00012945932688305714 0.00010481349992124279 -0.00011891530571175663 0.00010481349992124279 -0.00043359314667583393 -0.00016205471400074025 -0.00011891530571175663 -0.00016205471400074025 0.0004132466595194958" pbc="T T T"
Au      -0.01826004       0.04150585       0.06312342      -1.22908511       0.00119928      -0.00039477      -0.00037611
Cu      -0.08344846       1.89940263       1.89407589       2.72857259      -0.00008551       0.00010684       0.00004388
Cu       2.03315880      -0.04671804       1.95174066       3.21124574       0.00052469       0.00089473       0.00045619
Al       1.95915376       1.93475928       0.11763140      -3.31931305      -0.00016813       0.00138827      -0.00009067
Al      -0.07190242      -0.02284206       3.85556683      -2.46949157       0.00059569      -0.00086846       0.00061296
Al      -0.07736760       1.97253531       5.79663809      -1.88504160      -0.00059853       0.00004857       0.00051470
Al       1.90405286      -0.00881640       5.82803762      -2.18602857       0.00065106       0.00011585       0.00004988
Al       1.90449980       1.88845659       3.78746039      -2.80820771      -0.00026321       0.00005857       0.00016793
Al      -0.07549288      -0.02186810       7.75482609      -2.47841067      -0.00019078      -0.00013458       0.00087746
Au       0.00399071       1.93033731       9.76063755      -0.02052020      -0.00064878       0.00018749       0.00098757
Cu       1.87315341      -0.11034809       9.80688539       2.18760123       0.00070359       0.00024261       0.00014704
Au       1.95063492       1.90207941       7.87335871      -0.58821143       0.00168335       0.00036545      -0.00066052
Cu       0.03148665      -0.11650277      11.74668041       2.01088521       0.00034554      -0.00035152       0.00058509
Cu       0.00511344       1.89175230      13.78654169       2.56415371       0.00078339       0.00015115      -0.00016585
Au       1.87697069      -0.03807590      13.67399532      -0.28107463      -0.00061393      -0.00242504       0.00069513
Au       1.89654484       1.87155306      11.69322031      -0.87547019      -0.00044750       0.00107718      -0.00051445
Cu       0.02657096       3.84302061       0.09230585       2.23394086      -0.00051953       0.00099066       0.00130493
Cu      -0.08426436       5.78709026       1.85603228       2.75722498       0.00026289      -0.00020587       0.00098548
Cu       1.88321146       3.84437288       1.93482976       2.87204090      -0.00055584       0.00035718      -0.00044680
Au       1.93836296       5.77980237       0.07524965      -0.35470514      -0.00029530       0.00005546       0.00089923
Al      -0.04814891       3.86142581       3.79991464      -2.52166223       0.00055129      -0.00142398      -0.00034846
Au       0.00385538       5.76342538       5.91649576       0.13883192       0.00020978      -0.00102451       0.00027675
Au       2.02387733       3.77826951       5.80858021       0.33309740       0.00065808       0.00109750      -0.00000818
Al       1.91062207       5.76858454       3.82538795      -2.29377994      -0.00035923       0.00047879       0.00050700
Cu       0.11395423       3.87151964       7.82138904       3.31882035      -0.00045723       0.00025422      -0.00048795
Au       0.05643484       5.83220098       9.71184271       0.58865814      -0.00095793       0.00016770      -0.00039323
Cu       1.96050682       3.83453509       9.79876079       2.85986517      -0.00024135      -0.00020557       0.00022695
Al       1.97986317       5.85868073       7.82313302      -3.21905368      -0.00016217       0.00003437      -0.00067517
Au       0.01226662       3.90873088      11.77768434       0.30450774      -0.00026104      -0.00105443      -0.00068110
Au      -0.03004352       5.85095673      13.84490549       0.38929177       0.00023565       0.00009428      -0.00011069
Au       1.91914175       3.83647166      13.78511131       0.18254802       0.00059578       0.00034054       0.00085029
Al       1.98326508       5.86657803      11.81710114      -2.76222119      -0.00025130       0.00061215      -0.00056670
Al       0.01519374       7.82687876       0.06689796      -2.95938531       0.00024218       0.00067251       0.00123239
Au       0.04600864       9.78860564       2.06235281      -0.06318363       0.00067375       0.00003710       0.00116758
Al       1.94275313       7.83154136       1.94898307      -2.39938540      -0.00067648      -0.00021458       0.00172656
Cu       1.98093852       9.84749101       0.01936793       3.02485337       0.00012880      -0.00113933       0.00065917
Al       0.05780753       7.76368360       3.96082434      -2.59586440       0.00000268       0.00139019      -0.00080715
Al       0.05130546       9.75150005       5.94089281      -2.71421688      -0.00149541       0.00017162       0.00006076
Cu       1.95864157       7.80732873       5.93245378       3.14743944      -0.00103904       0.00085598      -0.00062993
Cu       1.92579787       9.90215036       3.94145335       3.07338790      -0.00077555      -0.00031202       0.00135755
Cu      -0.00571575       7.73142755       7.76437639       3.56700642      -0.00069294       0.00173873       0.00125164
Al       0.00278169       9.79978669       9.69531617      -2.24381716       0.00069790      -0.00175932       0.00073192
Al       2.01342137       7.90446430       9.78627685      -2.20983784      -0.00016469      -0.00099924      -0.00124729
Al       2.00006549       9.78910062       7.89651335      -2.12462567      -0.00212577       0.00052940      -0.00167317
Al       0.09303355       7.85565361      11.74290558      -2.16084652      -0.00102329       0.00060145      -0.00067557
Au       0.17626359       9.79541270      13.69282381       0.01281194      -0.00123602       0.00079467      -0.00003144
Cu       1.96704776       7.81313026      13.78611517       3.08011744      -0.00042063      -0.00043781       0.00042825
Cu       2.01958348       9.92899387      11.72346607       2.93778668       0.00050792      -0.00003044       0.00017671
Al       0.10328915      11.85739902      -0.02592786      -3.03094621       0.00080312      -0.00143246       0.00040812
Cu       0.08334409      13.78736752       2.02562264       2.85951151       0.00021879      -0.00000207       0.00071662
Au       1.88777176      11.80663963       1.99860732      -1.07508491       0.00033369      -0.00049698       0.00100488
Cu       1.99224167      13.84077411      -0.06306138       2.20523868       0.00002833       0.00007520      -0.00057755
Cu       0.01649966      11.80515345       3.98704260       2.75487830      -0.00047510      -0.00092992      -0.00097929
Au       0.01961255      13.81318788       6.07830973      -1.61172683      -0.00106462       0.00050472       0.00070664
Au       1.86467235      11.80411298       5.94873125       0.07009826      -0.00010531      -0.00002238      -0.00013533
Au       1.85827043      13.81169528       3.96623013      -0.41099631       0.00050300       0.00031854       0.00061401
Cu       0.02831589      11.89206462       7.88759519       3.24662026      -0.00009793       0.00040573       0.00044369
Au      -0.04936268      13.78695060       9.69987363      -2.02820517      -0.00021612       0.00278722       0.00018713
Au       2.02116401      11.86680441       9.81737915      -1.42674096       0.00102894      -0.00024913      -0.00057478
Cu       1.92143102      13.82092819       7.91858568       2.65478804       0.00021784       0.00052301       0.00103804
Au       0.01325017      11.79802769      11.66256316      -0.45716134       0.00014491      -0.00061504       0.00264295
Au       0.04051683      13.82499906      13.59202576      -0.68332305      -0.00008737      -0.00082185       0.00062675
Au       2.02419485      11.89701603      13.60153716      -1.27774525      -0.00180996      -0.00064387      -0.00070636
Cu       2.03891668      13.78687173      11.72075332       1.98311371       0.00045659      -0.00083867       0.00007038
Au       0.06365465      15.60478183      -0.00435308      -0.53181595       0.00130596      -0.00044935      -0.00027024
Al      -0.01055667      17.67888585       1.98825904      -2.49496165       0.00092653      -0.00031667       0.00025199
Cu       1.90387785      15.65981051       1.92142640       2.70960619       0.00044101      -0.00101405       0.00060992
Au       1.96590968      17.56723040       0.05601633      -1.24314609       0.00118541       0.00068253      -0.00097272
Au       0.00519665      15.78866666       3.96995031      -0.32236825       0.00083943       0.00116983       0.00026707
Cu      -0.09697264      17.60027103       5.87792880       2.87527357      -0.00020481      -0.00104030       0.00158913
Cu       1.84950363      15.76827951       5.99967816       2.61870945       0.00082812       0.00025450       0.00082701
Al       1.96620060      17.65194833       3.93179873      -2.63594471       0.00039026      -0.00071814       0.00008496
Cu       0.01622458      15.72750449       7.91493683       2.23730566       0.00031718       0.00040790      -0.00064650
Cu       0.00037565      17.60124093       9.83191940       2.16935185       0.00055038       0.00061624       0.00042768
Au       1.93448205      15.71326770       9.84481904      -2.45927225       0.00298197       0.00056708      -0.00229235
Au       1.84742424      17.64367137       7.84415300      -1.57302511       0.00139599      -0.00200279       0.00081652
Al      -0.06617015      15.70286278      11.67847979      -4.11451681      -0.00006811      -0.00080657       0.00094659
Au      -0.00553087      17.57748605      13.65119626      -1.36682262       0.00170869       0.00103878       0.00029284
Cu       1.98544312      15.65551789      13.65732453       1.87780713       0.00086667      -0.00128922      -0.00026302
Cu       1.90748866      17.62448074      11.69602123       2.01008241       0.00062752       0.00015145       0.00001188
Au       3.86643585      -0.05036287       0.07827130       0.11410047       0.00154876      -0.00085689      -0.00107943
Cu       3.90760922       1.93438472       2.06589241       2.58788727      -0.00008449       0.00101166       0.00025050
Al       5.80319969      -0.03580232       2.00257708      -3.47737332       0.00000328       0.00007752      -0.00040964
Al       5.79355542       1.94581654       0.03523209      -2.30084307      -0.00094911       0.00048098      -0.00009870
Au       3.92813816      -0.03314711       3.91718335      -1.42749255       0.00014107       0.00104456       0.00044742
Cu       3.94383807       1.85867640       5.84183340       2.67116003      -0.00061137       0.00067562       0.00015306
Cu       5.80842226      -0.01426711       5.79053538       1.88222444       0.00023384      -0.00028323       0.00050411
Cu       5.81064115       1.88303782       3.95588040       1.75308187      -0.00023953       0.00057959      -0.00022448
Au       3.85910080      -0.03884470       7.86958918      -0.97963146       0.00023857       0.00074684       0.00027767
Cu       3.82620275       1.92882530       9.79806900       2.86530096      -0.00004875       0.00090149      -0.00032619
Al       5.83341963       0.00334980       9.84590557      -2.96490963      -0.00064226       0.00054037      -0.00029575
Au       5.87457819       1.84549336       7.76017989      -0.29251086      -0.00090722       0.00019399       0.00015087
Al       3.87217065      -0.06057467      11.65472753      -3.29797299       0.00016794       0.00002286       0.00025449
Al       3.92046267       1.90641157      13.70569744      -2.31283584       0.00027467       0.00078436       0.00010951
Au       5.81738320      -0.09829852      13.64174592       0.26933986      -0.00169936      -0.00053684       0.00089101
Cu       5.86846799       1.95724836      11.77964033       3.12578920      -0.00052039       0.00140345      -0.00041724
Al       3.94002876       3.85396481       0.07500213      -2.54122747       0.00037759       0.00092465       0.00016385
Al       3.91432319       5.77713493       2.01886801      -2.27033157      -0.00026373      -0.00012814      -0.00053699
Cu       5.78488332       3.74220346       2.12004472       2.95623784       0.00006508       0.00017121       0.00001049
Au       5.78794834       5.90162013      -0.05166150      -0.21291435      -0.00025276       0.00024910       0.00006692
Cu       3.89124237       3.72299206       3.87554766       2.40512592       0.00014044       0.00056575      -0.00056800
Au       3.83072576       5.89846354       5.82875212       0.52536842      -0.00027938       0.00007560       0.00047836
Al       5.78140288       3.86835637       5.82568712      -3.01238829      -0.00048991       0.00095833       0.00016990
Al       5.81111595       5.87946367       3.90640611      -2.36314755       0.00017201      -0.00039744      -0.00013598
Au       3.89475695       3.80621811       7.86958080       0.12202080      -0.00102571       0.00045737      -0.00077936
Au       3.87216565       5.86184596       9.79648583       0.99580701      -0.00008854       0.00123069      -0.00078324
Al       5.87418646       3.81325961       9.80206540      -2.36086237      -0.00002871       0.00189119      -0.00013659
Al       5.84010937       5.88218084       7.84331080      -2.05361687       0.00038350       0.00068155       0.00048155
Au       3.91141670       3.83020667      11.75770453      -0.30307570      -0.00012937       0.00130875      -0.00057852
Cu       3.87244160       5.88256079      13.76736355       2.76308802       0.00004389       0.00063207      -0.00051456
Cu       5.79621114       3.95235863      13.67889297       3.27299963      -0.00008537       0.00109079      -0.00062529
Al       5.79507349       5.90260116      11.78842843      -2.60825930       0.00037326       0.00133434      -0.00087328
Au       3.83556767       7.87548986      -0.06119032      -0.78453927      -0.00056533      -0.00057564       0.00014946
Cu       3.81338676       9.86482966       1.91761403       2.80415977      -0.00041302      -0.00044084       0.00012406
Au       5.80226327       7.90374791       1.96521540       0.53646131      -0.00114860      -0.00031488       0.00022659
Au       5.81834289       9.82790328      -0.01461239      -0.32681442      -0.00093227       0.00100528       0.00089069
Au       3.75532531       7.96813450       3.92494470       0.48695419       0.00042837       0.00053849       0.00005213
Al       3.84040989       9.83893324       5.93911810      -2.31598609       0.00002099       0.00084537       0.00074785
Au       5.81302921       7.87510214       5.88141644       0.92134813       0.00156859       0.00105147       0.00027449
Al       5.86500794       9.82983298       3.91293885      -2.71737888       0.00095071       0.00018915       0.00035450
Cu       3.90377539       7.82229300       7.81788628       3.45599361       0.00022607       0.00082050       0.00029210
Cu       3.90518897       9.91571251       9.98224625       2.42831948       0.00001446      -0.00024324      -0.00003573
Au       5.72138997       7.98784426       9.82257972      -0.03376902       0.00085570       0.00036489      -0.00060935
Al       5.77309811       9.87930062       7.91035811      -2.53795288       0.00164587       0.00024415      -0.00082929
Au       3.86264935       7.91938650      11.87991479      -0.66862114      -0.00016804      -0.00035689      -0.00051889
Al       3.86795499       9.88464315      13.67620930      -3.72060407      -0.00068951      -0.00020855      -0.00036499
Cu       5.84436887       7.87795271      13.73580544       2.72170235       0.00039561       0.00158729      -0.00070628
Cu       5.79768677       9.87679625      11.74562468       2.20036879       0.00033778      -0.00041738       0.00045764
Au       3.80250878      11.84831851       0.01499033      -0.61404813       0.00082925      -0.00049095       0.00015565
Al       3.85133709      13.85479799       1.99033259      -3.26236523       0.00036926       0.00038281      -0.00029374
Au       5.84277353      11.77594051       1.96348988       0.49817308      -0.00015638      -0.00014443      -0.00145178
Au       5.76794505      13.84447113       0.00639379      -0.28546818      -0.00032391      -0.00139033       0.00010701
Au       3.84582302      11.75385293       3.92518361       0.35654724      -0.00028843      -0.00071770       0.00254060
Al       3.83158475      13.77998548       5.91327977      -2.21556604       0.00007210      -0.00073949      -0.00061412
Au       5.93626640      11.83338300       5.86407184       0.75779903       0.00085596       0.00041494       0.00057867
Au       5.91621536      13.75094747       3.90520278       0.72349146       0.00013953       0.00045341       0.00003766
Al       3.90678846      11.85205114       7.91456185      -2.24490018      -0.00073788      -0.00067332       0.00029544
Cu       3.83548855      13.82670160       9.85466933       2.20345612       0.00093236      -0.00018702       0.00008266
Cu       5.75546868      11.75298298       9.94140668       2.36857694       0.00116931      -0.00109567       0.00057848
Al       5.80841036      13.75408929       7.95343094      -2.41074835       0.00090670      -0.00067281       0.00047864
Cu       3.89440379      11.88108356      11.69131780       1.83004540       0.00037022      -0.00125944      -0.00031710
Cu       3.79966885      13.82806277      13.66838307       1.90404055       0.00058079      -0.00118000      -0.00090991
Au       5.76532570      11.92026338      13.65091906      -0.57042857      -0.00096987       0.00007255       0.00030788
Au       5.70496143      13.82435262      11.67615617      -1.71157189       0.00077387      -0.00035281      -0.00017681
Cu       3.79262373      15.68471519       0.00048340       2.12632104       0.00080796      -0.00032223      -0.00020709
Cu       3.86551712      17.54956979       1.94399054       2.42582412       0.00133804      -0.00012461      -0.00018291
Cu       5.82926725      15.78203438       1.99059978       2.88634343       0.00046934      -0.00114530      -0.00053181
Au       5.77740368      17.51807487       0.04745906      -0.55521621      -0.00072201       0.00089634      -0.00092488
Al       3.86407865      15.77621619       3.96265112      -2.68256980       0.00063259      -0.00079353      -0.00018982
Cu       3.91823683      17.69085656       5.93366089       2.90241985       0.00068089      -0.00040304       0.00020758
Al       5.83052089      15.69087229       5.84866952      -2.31559547       0.00031580      -0.00092724      -0.00027295
Cu       5.78857430      17.69030398       3.91850832       2.60789577      -0.00013425      -0.00057210       0.00060773
Au       3.82714090      15.71723285       7.86901129      -1.00758772      -0.00179764       0.00001306       0.00222580
Cu       3.82209471      17.58038299       9.81409063       2.19233644      -0.00005646      -0.00149294       0.00015848
Cu       5.69389895      15.76307823       9.85982943       2.23333849       0.00034009      -0.00123054       0.00094802
Au       5.80499828      17.63675303       7.85121387      -0.27031223       0.00060560      -0.00026821       0.00051196
Cu       3.79888862      15.71454153      11.69297591       1.55151617       0.00070927      -0.00159172      -0.00081146
Au       3.81053804      17.52891642      13.62056506      -1.13885507       0.00118641       0.00155995       0.00014057
Al       5.77626837      15.64070108      13.66506690      -3.81320151       0.00007575      -0.00100852      -0.00113574
Cu       5.78749663      17.51156553      11.71895965       2.49077389      -0.00077815      -0.00005412      -0.00055960
Au       7.82305587      -0.03815811       0.00412363       0.16622315      -0.00120408       0.00036734       0.00001530
Au       7.76317230       1.88057314       1.99157426      -0.44268089      -0.00059813       0.00003500       0.00029529
Cu       9.77104884       0.04616127       1.94168117       2.33057767      -0.00062693       0.00004065       0.00011702
Cu       9.78732429       1.85825184       0.06120877       2.57678510      -0.00064903       0.00008188      -0.00028071
Cu       7.74944725       0.03071113       3.92289515       2.23192667      -0.00101031      -0.00033528       0.00043619
Cu       7.75509739       1.87378206       5.77957486       2.50867655      -0.00104447       0.00058235       0.00040901
Al       9.78712564      -0.04660175       5.81890077      -2.56604919      -0.00077675      -0.00036264       0.00175660
Au       9.76444415       1.87221813       3.85019920      -0.66230621      -0.00230152      -0.00062435      -0.00043217
Al       7.82971421      -0.05774437       7.84796163      -2.28734553      -0.00064982       0.00037520       0.00022886
Cu       7.84144314       1.94512978       9.79538690       3.45367876      -0.00035810       0.00071332       0.00005739
Al       9.80441375      -0.04573758       9.82631609      -1.75306975      -0.00062645       0.00032551       0.00054707
Au       9.76781353       1.93049479       7.79656276       0.77246515      -0.00006899      -0.00024481       0.00102632
Au       7.80476183       0.04216966      11.72691185       0.06511977      -0.00017059      -0.00007427      -0.00163132
Au       7.74880934       1.99452855      13.73347528       0.02204372      -0.00049421       0.00141807      -0.00000304
Au       9.85098954       0.04274651      13.76462100       0.10246887      -0.00034732       0.00040108       0.00003762
Au       9.84362297       2.03407069      11.77112626       0.73321337       0.00023465      -0.00055627      -0.00080130
Al       7.71939729       3.91918727       0.07379497      -2.36705475      -0.00090018       0.00043554      -0.00036621
Al       7.74715829       5.92552858       1.98132957      -2.51788330      -0.00106961      -0.00017817       0.00133881
Al       9.75694101       3.90333047       1.91118810      -2.25433234      -0.00086830      -0.00101943      -0.00137010
Au       9.75328189       6.07326078       0.06944080       0.64306137       0.00035746      -0.00028529      -0.00043717
Au       7.73679329       3.84109262       3.92157332       0.01720548      -0.00091356      -0.00011337       0.00046602
Au       7.84606290       5.97607784       5.85588869       0.33094057      -0.00013275       0.00091576       0.00011180
Au       9.79756497       3.90872730       5.80396554      -0.29401567      -0.00058922      -0.00154984      -0.00085749
Au       9.78756637       5.96478455       3.89909390      -0.50182662       0.00100549      -0.00044982      -0.00004394
Au       7.81228931       3.84814262       7.77511467       0.74344892      -0.00057454       0.00061412       0.00072372
Al       7.80866144       5.90025457       9.77577792      -1.30235261       0.00030476       0.00018289      -0.00120426
Al       9.81932332       3.93158296       9.75738366      -2.25462866       0.00101327       0.00195176      -0.00040166
Au       9.88617530       5.95951102       7.73935399       0.61898644       0.00038318      -0.00056231      -0.00042581
Al       7.77407082       3.91516149      11.74845488      -2.34945799       0.00022788       0.00147350      -0.00087325
Au       7.76392305       5.93600669      13.73523120       0.18751572       0.00075028       0.00098135      -0.00064732
Au       9.78766351       3.92180993      13.84601725       0.53089813      -0.00193173       0.00079190      -0.00114490
Au       9.82541276       5.83915087      11.77412262       1.36439893       0.00032927       0.00069534      -0.00003206
Cu       7.71618600       7.87487045      -0.02286032       2.97785722      -0.00154596      -0.00048826       0.00058648
Al       7.84415581       9.82958400       1.99965361      -3.23902280       0.00055040      -0.00071154       0.00113125
Cu       9.77779368       7.88100491       1.99656500       2.96009285       0.00188826       0.00196561      -0.00131497
Au       9.71902664       9.75295854       0.03748986      -0.82230632       0.00548467      -0.00043683       0.00488977
Cu       7.88395285       7.86678483       3.95607790       3.10073854      -0.00054559      -0.00124390       0.00121861
Au       7.85237777       9.77768802       5.84791425       0.39989457      -0.00259987      -0.00170829       0.00160324
Cu       9.85178999       7.84776431       5.79566560       3.00674285       0.00384109      -0.00110500      -0.00186126
Au       9.80051753       9.77596547       3.92409313      -0.85758315       0.00787595       0.00065676      -0.00397436
Al       7.82004442       7.93552575       7.91930678      -1.88413106       0.00031751      -0.00018883      -0.00098598
Cu       7.72965716       9.92378803       9.91058201       3.03466128       0.00031546      -0.00009555      -0.00082124
Al       9.86820793       7.89600586       9.80079420      -1.77904437       0.00100073      -0.00133626       0.00080289
Al       9.87956137       9.74894153       7.81310681      -2.18969227       0.00044118       0.00053264       0.00126939
Au       7.74074344       7.93989425      11.71047112       0.14529836       0.00153231       0.00188055      -0.00022057
Au       7.73728871       9.83645327      13.68965707      -0.55375261       0.00042729      -0.00146249      -0.00238247
Al       9.78508679       7.88166821      13.68410327      -2.63587592      -0.00054212      -0.00047790       0.00007582
Au       9.81772557       9.90423151      11.73190650       0.53984764       0.00181547      -0.00043460       0.00043959
Au       7.86163349      11.86447713      -0.05164052      -0.82944123      -0.00154273       0.00011492       0.00163320
Al       7.86391181      13.72321143       1.95950003      -2.87808299      -0.00060247      -0.00056576      -0.00076809
Cu       9.82231759      11.78273353       1.99230207       2.67988108       0.00235550       0.00014152      -0.00113537
Cu       9.76106142      13.68644057      -0.05878164       2.60382678      -0.00110782       0.00064307       0.00101209
Cu       7.87510088      11.81342696       3.95136616       3.05174301      -0.00000868      -0.00048737      -0.00071518
Cu       7.86783511      13.66641756       5.88806035       3.30586214      -0.00009921       0.00094037       0.00113346
Al       9.82120770      11.73527425       5.91352756      -2.70132063      -0.00002702       0.00038618      -0.00192909
Au       9.81504445      13.66550211       3.91281896      -0.02997240       0.00200362      -0.00018188       0.00058293
Au       7.78289123      11.76414530       7.94434761       0.48318290       0.00061516      -0.00003197      -0.00125656
Al       7.76011947      13.79831436       9.85106320      -2.31277556      -0.00009633      -0.00004384       0.00048474
Au       9.86834519      11.78676202       9.76025422       0.48682448       0.00074814      -0.00176301       0.00012511
Au       9.83657065      13.77903201       7.82758246       0.47595108      -0.00151578       0.00004112       0.00012233
Al       7.78332964      11.85731990      11.77798193      -3.06884658       0.00086035      -0.00071886       0.00002236
Cu       7.83519433      13.77277370      13.75481091       2.51567652       0.00023131      -0.00102990       0.00016128
Cu       9.75883076      11.74388358      13.78887373       3.06454084       0.00088653      -0.00105096      -0.00060076
Al       9.77645849      13.72832398      11.81707781      -2.04025861      -0.00032407      -0.00102327       0.00036886
Au       7.86247331      15.63821415       0.01534863      -0.19156128       0.00022862      -0.00130224      -0.00051230
Au       7.80585490      17.68157433       2.08625891      -0.54245991       0.00013233       0.00025670      -0.00018423
Al       9.84066254      15.67858025       2.00422901      -2.23490159       0.00048499       0.00067241      -0.00069213
Al       9.78219801      17.63711994       0.02728259      -2.52102539      -0.00141943       0.00059837      -0.00061986
Al       7.83250048      15.68863003       3.92254094      -2.34157492      -0.00076572       0.00043838       0.00013380
Au       7.74545217      17.72652628       5.72949604       0.09500822      -0.00031466      -0.00062457       0.00100401
Al       9.81439693      15.73132064       5.78684053      -2.15946971      -0.00063807       0.00147734      -0.00121610
Cu       9.79632192      17.77070977       3.81225774       3.11006717      -0.00058449       0.00020321       0.00012051
Au       7.77739937      15.66921684       7.78091883       1.07055372      -0.00041559       0.00004683       0.00143275
Au       7.73739985      17.47307728       9.92857684       0.24612263      -0.00036334       0.00049639       0.00045653
Al       9.83719435      15.61742102       9.85359651      -1.95680676      -0.00026368      -0.00018634       0.00090158
Al       9.79674120      17.55840843       7.83361698      -1.54929635      -0.00123637       0.00000127       0.00044832
Cu       7.73308531      15.61537465      11.83368752       2.94692716      -0.00107340       0.00028972      -0.00100625
Au       7.79977476      17.54854520      13.62695819      -0.22356908      -0.00128421      -0.00032916      -0.00080323
Cu       9.67994852      15.61086544      13.75253146       3.06050062      -0.00275842       0.00020290      -0.00044511
Al       9.85752799      17.54428260      11.82410956      -2.06090645      -0.00043077       0.00029912      -0.00019511
Cu      11.71741042       0.12174417       0.04253870       2.53712887      -0.00028942       0.00085844      -0.00093855