399
Lattice="19.59262691714357 -0.0029401591670048664 0.00043227724696582155 -0.0029405439160256983 19.594541571232078 0.002722427805357169 0.0003459403246241731 0.002177382872289726 15.670877927394494" Properties=species:S:1:pos:R:3:energies:R:1:forces:R:3 energy=11.973946909091234 free_energy=11.973946909091234 stress="-4.3107248056738676e-05 1.7803875010659024e-05 -9.483410434769485e-05 1.7803875010659024e-05 -0.0006659229623652773 -1.5750537365701534e-06 -9.483410434769485e-05 -1.5750537365701534e-06 0.000390151603413756" pbc="T T T"
Au      -0.00085392       0.05950353       0.07847690      -0.88528654      -0.00112225      -0.00074458      -0.00339759
Cu      -0.04180160       1.95488482       1.88047012       2.82223667       0.00374105       0.00205980       0.00107817
Cu       2.04035249      -0.03940908       1.95155780       3.21206302       0.00116450      -0.00171668      -0.00182621
Al       1.97805522       1.94334186       0.10825827      -3.31331771      -0.00012631      -0.00200952       0.00106264
Al      -0.13564410      -0.01214937       3.80435243      -2.02925126      -0.00115573       0.00304843      -0.00413201
Al      -0.09120004       1.97208565       5.78401243      -1.87176997      -0.00063371       0.00020116      -0.00112461
Al       1.88010155      -0.00955086       5.81441810      -2.17139962       0.00179049      -0.00008473       0.00084848
Al       1.90066568       1.88558903       3.79341561      -2.80557946      -0.00005122       0.00296167      -0.00342062
Al      -0.08093264      -0.02162739       7.75426006      -2.47541572      -0.00196914      -0.00086995       0.00066648
Au       0.00346490       1.92987578       9.75969587      -0.02286157      -0.00071517       0.00050010       0.00176828
Cu       1.87185039      -0.11090083       9.80709479       2.18415946      -0.00062045       0.00049994       0.00108038
Au       1.94585895       1.89823236       7.86765447      -0.58831342      -0.00046701       0.00032426      -0.00029232
Cu       0.03061576      -0.11663257      11.74834236       2.00874485      -0.00245946      -0.00002282       0.00216762
Cu       0.00646854       1.89733157      13.79500889       2.56438493      -0.00141423      -0.00364244       0.00247236
Au       1.87331961      -0.03634861      13.67772177      -0.28492425      -0.00528638      -0.00430203       0.00584409
Au       1.89500472       1.87019475      11.69412655      -0.87383407      -0.00164201       0.00327434      -0.00021484
Cu       0.03870321       3.85532720       0.08383093       2.25938952       0.00230797       0.00326765       0.00071938
Cu      -0.07701699       5.79734940       1.85401762       2.77572690      -0.00156710       0.00217604      -0.00108796
Cu       1.89373247       3.85058386       1.93670766       2.85399158       0.00038577      -0.00068894      -0.00183602
Au       1.94346094       5.78418141       0.07160973      -0.36758512       0.00103632       0.00102472       0.00030303
Al      -0.04507978       3.88196515       3.80318112      -2.52409941      -0.00233651      -0.00143812      -0.00118835
Au       0.00678667       5.76545588       5.91752862       0.14400784      -0.00047035       0.00149215      -0.00069562
Au       2.02209387       3.77679338       5.80843858       0.33000211       0.00017835       0.00152696      -0.00067966
Al       1.91721341       5.77210383       3.82721690      -2.29562863       0.00209258       0.00416859      -0.00047876
Cu       0.11433908       3.86923993       7.81858650       3.32077609      -0.00031660      -0.00006717      -0.00073815
Au       0.05714594       5.82848810       9.71094897       0.58448226       0.00057808       0.00088173       0.00194745
Cu       1.96028777       3.83120249       9.79781276       2.85845888      -0.00132502      -0.00059828      -0.00047708
Al       1.98204516       5.85618210       7.82398877      -3.22005368      -0.00082065       0.00016872      -0.00051568
Au       0.01220948       3.90804265      11.77855006       0.30307823      -0.00033102      -0.00178997       0.00010348
Au      -0.02833103       5.85242523      13.84138861       0.37511126      -0.00061849       0.00048410      -0.00011456
Au       1.92590845       3.84111458      13.77953062       0.17972559      -0.00098192       0.00007347       0.00061124
Al       1.98481494       5.86670843      11.81375648      -2.76113070       0.00116171      -0.00049248       0.00021767
Al       0.01774701       7.83016532       0.06382363      -2.96910084       0.00261978       0.00084298       0.00035255
Au       0.04676750       9.78911004       2.06001509      -0.06091741       0.00077242       0.00020489      -0.00104127
Al       1.94654283       7.83383309       1.94801264      -2.40758635       0.00023050      -0.00002039      -0.00069022
Cu       1.98243812       9.84723683       0.01707021       3.03052066       0.00024438       0.00086858       0.00025517
Al       0.06171907       7.76317898       3.95592991      -2.59381485       0.00038138       0.00189562      -0.00033316
Al       0.05458929       9.74912328       5.93089946      -2.71436179      -0.00063006      -0.00045943       0.00182438
Cu       1.96044112       7.80642376       5.93279774       3.15003711      -0.00057232       0.00120226       0.00029055
Cu       1.92787770       9.90183384       3.93957548       3.08100870       0.00117423      -0.00066501       0.00089035
Cu       0.00203628       7.72997019       7.76975720       3.57615892       0.00053050       0.00045041      -0.00096916
Al       0.01705763       9.79813992       9.71294656      -2.23876704      -0.00075258      -0.00069427      -0.00048596
Al       2.01819372       7.90197271       9.78698287      -2.21237407      -0.00087040      -0.00066605      -0.00103434
Al       1.99688938       9.78834570       7.89697861      -2.13006453       0.00039978      -0.00034269       0.00054711
Al       0.09334725       7.85294096      11.74157873      -2.15809320      -0.00049932      -0.00112625       0.00014861
Au       0.17783210       9.79526467      13.68871659       0.01328822      -0.00116582       0.00081877      -0.00032313
Cu       1.96810093       7.81361829      13.78389636       3.08544224       0.00056298       0.00022241      -0.00131341
Cu       2.02344920       9.92954125      11.72575840       2.94552840      -0.00051418       0.00009841       0.00009209
Al       0.10573579      11.85450569      -0.02825124      -3.03373956       0.00015467      -0.00048345      -0.00017566
Cu       0.09085216      13.78092339       2.02368794       2.85929491      -0.00022294       0.00057203       0.00000699
Au       1.89135591      11.80335197       1.99653921      -1.08301574      -0.00009010      -0.00066312       0.00032902
Cu       1.98747200      13.84479357      -0.06333708       2.19278706      -0.00016964       0.00008122      -0.00027804
Cu       0.01869408      11.80382975       3.98442234       2.75225468      -0.00040266      -0.00110845       0.00088791
Au       0.02660585      13.80960243       6.08351550      -1.60263038       0.00014401      -0.00150783      -0.00045816
Au       1.86691313      11.80035835       5.95089242       0.08233405      -0.00035573       0.00092125       0.00051342
Au       1.86773867      13.80169659       3.96684556      -0.39242834       0.00000724      -0.00194997      -0.00086343
Cu       0.03587764      11.89322694       7.89650961       3.25100826       0.00017576      -0.00034273      -0.00013287
Au      -0.04723597      13.79301147       9.70517154      -2.03246532       0.00021023       0.00168478       0.00227050
Au       2.02448523      11.86946822       9.82017447      -1.43798944       0.00176798      -0.00119554      -0.00025179
Cu       1.92551164      13.82257361       7.92389251       2.65433149      -0.00146658       0.00062995       0.00026477
Au       0.01606417      11.80262585      11.66434496      -0.45053026      -0.00130392      -0.00099564       0.00205207
Au       0.03733293      13.82951822      13.59396283      -0.67677967       0.00054391       0.00019219      -0.00136427
Au       2.02354413      11.90060615      13.60179910      -1.27709820      -0.00067925      -0.00031229      -0.00031131
Cu       2.03764541      13.79188342      11.72309243       1.98282752      -0.00031713       0.00002299       0.00019115
Au       0.05511599      15.61308864      -0.00396760      -0.52927804       0.00132785      -0.00373329       0.00046165
Al      -0.01130012      17.66702758       1.99367822      -2.09341368       0.00158138       0.00276329      -0.00302742
Cu       1.90332015      15.65805776       1.91937247       2.70703665       0.00127050      -0.00269915       0.00182127
Au       1.96338204      17.57091942       0.05986290      -1.24305102      -0.00065054       0.00606726      -0.00296340
Au       0.01775201      15.76844872       3.97623016      -0.39147029      -0.00152467      -0.00154773       0.00228939
Cu      -0.09792699      17.59446783       5.87793502       2.83880152       0.00029672      -0.00257631      -0.00138635
Cu       1.85442548      15.76871110       6.00163277       2.62047179      -0.00101100      -0.00024843       0.00017878
Al       1.95240836      17.66155773       3.92713768      -2.61854723       0.00429033      -0.00537011       0.00221835
Cu       0.01899554      15.72799479       7.91609913       2.24398125      -0.00078010       0.00024016       0.00198683
Cu      -0.00167026      17.60261573       9.83156839       2.17187206       0.00031921      -0.00120640       0.00007198
Au       1.93381691      15.71843364       9.84883741      -2.46469351       0.00091983       0.00150742      -0.00254767
Au       1.84528358      17.64629232       7.84343520      -1.58008911      -0.00033234      -0.00205964      -0.00067996
Al      -0.07019274      15.71355087      11.68721873      -4.11391865      -0.00157411      -0.00063154       0.00055568
Au      -0.02085087      17.59113861      13.67131928      -1.37694362       0.00614985       0.00378956       0.00151521
Cu       1.97950192      15.66232110      13.66055853       1.87388896       0.00093250      -0.00059004      -0.00004007
Cu       1.90229371      17.62636489      11.70361613       2.00506477      -0.00111751       0.00113220       0.00047758
Au       3.87009701      -0.05212272       0.07573562       0.11748973      -0.00022075      -0.00158804      -0.00004786
Cu       3.90702192       1.93522228       2.06803032       2.57421015       0.00050709       0.00110228       0.00243187
Al       5.80257402      -0.03684653       2.00398227      -3.48036137      -0.00127649       0.00020617      -0.00162114
Al       5.79252665       1.94507726       0.03487898      -2.29840445       0.00012734       0.00081995      -0.00032691
Au       3.92756312      -0.03510184       3.91934884      -1.44297824       0.00013002       0.00094970       0.00140645
Cu       3.94019457       1.85466428       5.84122251       2.67125922      -0.00194614       0.00016058       0.00072606
Cu       5.80912680      -0.01602399       5.79014771       1.88452451      -0.00058368      -0.00035300       0.00163168
Cu       5.80936015       1.88161753       3.95668277       1.75474925      -0.00126279       0.00131525      -0.00053411
Au       3.85423638      -0.03956507       7.86300465      -0.99291387      -0.00198501       0.00147932      -0.00068552
Cu       3.82217002       1.92458083       9.79597228       2.86085751      -0.00172484       0.00029288      -0.00160037
Al       5.82933827       0.00177462       9.84469165      -2.96880262      -0.00022584       0.00111129      -0.00024198
Au       5.87222051       1.84222430       7.76004162      -0.29132443      -0.00143095      -0.00130921      -0.00058657
Al       3.86940589      -0.06205897      11.65663655      -3.29751444       0.00054615       0.00011405      -0.00082188
Al       3.92411266       1.90554663      13.70125822      -2.31375304       0.00145569       0.00097567       0.00062064
Au       5.81905682      -0.09988293      13.63947966       0.26715752      -0.00269969      -0.00038188       0.00088266
Cu       5.86926759       1.95472332      11.77612070       3.13155228      -0.00055169       0.00097811      -0.00027211
Al       3.94623436       3.85819218       0.07176466      -2.54149914       0.00186654       0.00270816       0.00120814
Al       3.91684681       5.77886579       2.01721855      -2.27378952       0.00020166       0.00092850       0.00041499
Cu       5.78392680       3.74153807       2.12080061       2.95747609       0.00057016       0.00036540      -0.00065629
Au       5.79043741       5.90462695      -0.05280505      -0.20856481      -0.00060524      -0.00041610      -0.00024989
Cu       3.89077779       3.72303224       3.87675057       2.40272783      -0.00028646       0.00089970      -0.00081769
Au       3.83183703       5.89724160       5.83061733       0.52705353      -0.00108599      -0.00051878       0.00021872
Al       5.77909816       3.86532868       5.82659672      -3.01494696      -0.00057470       0.00021679       0.00072084
Al       5.80944949       5.87806195       3.90618774      -2.36624981       0.00099664       0.00004983      -0.00025108
Au       3.89213901       3.80179790       7.86947897       0.11847767      -0.00029922       0.00011823      -0.00020298
Au       3.87409965       5.86024562       9.79561590       1.00213743      -0.00010930      -0.00083908      -0.00092016
Al       5.87343637       3.81042407       9.80043855      -2.35986286      -0.00002498      -0.00195135      -0.00071983
Al       5.83889082       5.87841311       7.84409331      -2.05260453      -0.00078645      -0.00077981      -0.00067579
Au       3.91329172       3.82834785      11.75381821      -0.29894758      -0.00071273       0.00009812      -0.00024914
Cu       3.87557642       5.88500419      13.76473503       2.76927249      -0.00019842      -0.00086943      -0.00051716
Cu       5.79737597       3.95281781      13.67682218       3.27582075      -0.00015252      -0.00015851      -0.00132612
Al       5.79528494       5.90297310      11.78833961      -2.61088049       0.00062516      -0.00133321      -0.00179246
Au       3.83716409       7.87722536      -0.06328133      -0.78618368       0.00060967       0.00005137      -0.00039989
Cu       3.81592670       9.86480104       1.91564333       2.80998321       0.00045394       0.00021201       0.00128983
Au       5.80237636       7.90419659       1.96487123       0.53623686       0.00043982      -0.00100159       0.00008549
Au       5.81766011       9.82972984      -0.01579888      -0.32730480       0.00163295       0.00079256       0.00007184
Au       3.75755714       7.96963086       3.92580767       0.48761472       0.00110669      -0.00060296      -0.00011241
Al       3.84192444       9.83823828       5.94141068      -2.31636764       0.00071071      -0.00016863       0.00020744
Au       5.81316888       7.87389935       5.88184906       0.91945535       0.00136425      -0.00014728       0.00070975
Al       5.86860776       9.82960469       3.91316081      -2.72087805      -0.00035634      -0.00063540       0.00064638
Cu       3.90460398       7.82248899       7.81812521       3.45688092       0.00023424      -0.00023953       0.00054671
Cu       3.90591186       9.91661865       9.98286434       2.42893360       0.00028708       0.00053650      -0.00017429
Au       5.72057229       7.98828749       9.82363441      -0.03383070       0.00020400      -0.00071821      -0.00046070
Al       5.77504886       9.87894870       7.91072069      -2.53785175       0.00093753      -0.00056418       0.00033329
Au       3.86399774       7.92016492      11.88106938      -0.67611682       0.00077961      -0.00041646      -0.00084610
Al       3.86749738       9.88687637      13.67660528      -3.72752922       0.00062794       0.00010434      -0.00096504
Cu       5.84590655       7.88103615      13.73556154       2.72543244       0.00073104      -0.00052405      -0.00111733
Cu       5.79725917       9.87794161      11.74876152       2.19926790       0.00035018       0.00003213      -0.00033030
Au       3.80203919      11.85183341       0.01333835      -0.60749285       0.00182426      -0.00019137       0.00050336
Al       3.85143024      13.85651892       1.98861294      -3.26491414       0.00023936      -0.00079132      -0.00020826
Au       5.84216368      11.77758432       1.96239209       0.49507972       0.00081019      -0.00078569      -0.00075823
Au       5.76890184      13.84673140       0.00704440      -0.28340565      -0.00064207      -0.00118208       0.00087195
Au       3.84933893      11.74997721       3.92581621       0.35268632       0.00100560      -0.00010211       0.00148995
Al       3.83329368      13.77948646       5.91527146      -2.21701437      -0.00010682       0.00053895       0.00110257
Au       5.93780437      11.83444517       5.86393580       0.75448619       0.00037294      -0.00058476       0.00122567
Au       5.91292232      13.75320920       3.90443371       0.71945360       0.00196230       0.00053852       0.00076560
Al       3.90832514      11.85099350       7.91562276      -2.24549148      -0.00019343      -0.00002058       0.00197024
Cu       3.83547580      13.82957648       9.85673351       2.20215098      -0.00046372       0.00169242       0.00056091
Cu       5.75452255      11.75459823       9.94355999       2.36793364      -0.00011268       0.00072911       0.00073159
Al       5.80617443      13.75807372       7.95346634      -2.41066520      -0.00010254       0.00087549       0.00065172
Cu       3.89458310      11.88278283      11.69381020       1.83724719       0.00051701       0.00033687      -0.00047248
Cu       3.79703854      13.83310822      13.67027667       1.90078575       0.00151132      -0.00079502      -0.00058818
Au       5.76505313      11.92205593      13.65262522      -0.56848331       0.00050638       0.00026753       0.00052329
Au       5.70351351      13.82610654      11.67850679      -1.71080217       0.00041483       0.00193094      -0.00025842
Cu       3.79068212      15.68695843       0.00041180       2.12441152       0.00136704      -0.00088918       0.00033805
Cu       3.86476227      17.55077517       1.94446404       2.42570428       0.00102872      -0.00146402       0.00078334
Cu       5.82904060      15.78233267       1.99281947       2.88600163       0.00089372      -0.00071713      -0.00003251
Au       5.77911795      17.51624753       0.04837921      -0.55392124      -0.00129819       0.00214714      -0.00057763
Al       3.85762544      15.78087356       3.96232639      -2.69201242       0.00003883       0.00002637       0.00052454
Cu       3.91189849      17.69287535       5.93182759       2.89804566      -0.00174520      -0.00006825      -0.00038362
Al       5.82706288      15.69409302       5.84649892      -2.31943798       0.00065632      -0.00067627       0.00087753
Cu       5.78940993      17.68950958       3.91867694       2.60779138      -0.00042438      -0.00150469       0.00073927
Au       3.82647166      15.72009484       7.87086344      -1.01541043      -0.00361687       0.00179846       0.00189241
Cu       3.82056840      17.58261252       9.81491436       2.19627279      -0.00121033      -0.00031815      -0.00005009
Cu       5.69217200      15.76508373       9.86087211       2.23344716      -0.00043481       0.00083550      -0.00014751
Au       5.80332062      17.63884230       7.84929361      -0.26654495      -0.00056228       0.00055002       0.00067937
Cu       3.79798783      15.71740021      11.69570728       1.55487869      -0.00041266      -0.00017144      -0.00127407
Au       3.80989764      17.52987890      13.62298371      -1.14175636      -0.00105445       0.00251831       0.00145650
Al       5.77636502      15.64210929      13.66588133      -3.81343883       0.00103004      -0.00012502       0.00000358
Cu       5.78724902      17.51203488      11.71901311       2.49016411      -0.00006454       0.00113818      -0.00039649
Au       7.82124873      -0.03871669       0.00461344       0.16433492       0.00003777      -0.00016016      -0.00019142
Au       7.76082809       1.88019952       1.99170531      -0.44251499       0.00025327      -0.00151037       0.00133692
Cu       9.76847743       0.04607867       1.94218785       2.33332488      -0.00026644      -0.00036036      -0.00192973
Cu       9.78314743       1.85763998       0.05979858       2.58041916      -0.00026068       0.00069680       0.00058292
Cu       7.74807501       0.02951225       3.92367939       2.23163645       0.00026895       0.00075847      -0.00033721
Cu       7.75354290       1.87281171       5.78130026       2.51261409      -0.00004085      -0.00152433      -0.00087661
Al       9.78557679      -0.04533171       5.82142222      -2.56427406       0.00224933      -0.00061350      -0.00056404
Au       9.76100274       1.87074770       3.85223494      -0.66298803       0.00008682       0.00050057      -0.00107982
Al       7.83127889      -0.05779056       7.84964392      -2.28869937      -0.00085951       0.00018128      -0.00166058
Cu       7.84309841       1.94290643       9.79342467       3.45394676      -0.00078534      -0.00012908      -0.00053035
Al       9.81157210      -0.04677984       9.82162805      -1.74861624      -0.00029534       0.00068042      -0.00069702
Au       9.77534268       1.92956030       7.79518733       0.77982016       0.00142912      -0.00229913       0.00031602
Au       7.80588276       0.04066404      11.72229371       0.06103170      -0.00070831       0.00031830      -0.00075708
Au       7.74672239       1.99232219      13.73130054       0.01994375       0.00063792       0.00197522      -0.00031615
Au       9.84847359       0.04206336      13.76269170       0.10094670      -0.00017621       0.00036741       0.00108071
Au       9.84431234       2.03099157      11.76735519       0.73055014       0.00076958       0.00063599       0.00044478
Al       7.71771767       3.91847428       0.07281251      -2.36765428      -0.00008014       0.00021225      -0.00064902
Al       7.74747464       5.92536905       1.98157605      -2.51588976      -0.00097693      -0.00066622      -0.00044915
Al       9.75408475       3.90083868       1.91208604      -2.25588480      -0.00003736       0.00014785      -0.00006121
Au       9.75173146       6.07235763       0.06737483       0.64632485      -0.00099019      -0.00025534      -0.00094092
Au       7.73483731       3.83952221       3.92269851       0.01557800      -0.00008621      -0.00077535       0.00076627
Au       7.84143828       5.96984208       5.85641166       0.33218498       0.00078536      -0.00103630      -0.00006737
Au       9.79932575       3.90374045       5.80499286      -0.28733438       0.00021589      -0.00028492      -0.00082616
Au       9.78377237       5.96068853       3.90189907      -0.48804482      -0.00011497      -0.00056738      -0.00070556
Au       7.81211142       3.84237339       7.77603660       0.73587090      -0.00057113      -0.00094643      -0.00152804
Al       7.80504916       5.89610772       9.77837099      -1.30051804       0.00102399      -0.00221796      -0.00135330
Al       9.82155303       3.92899296       9.75622949      -2.25537078       0.00044282      -0.00165339      -0.00065238
Au       9.88059412       5.94832354       7.74089165       0.63011612       0.00112764      -0.00162627      -0.00037484
Al       7.77361719       3.91304984      11.74683750      -2.35102569      -0.00058977      -0.00083213      -0.00148976
Au       7.76425376       5.93694810      13.73423282       0.18892227       0.00030147      -0.00058788      -0.00180746
Au       9.78377048       3.91874824      13.84223934       0.53287227       0.00191687      -0.00049501       0.00109135
Au       9.82435039       5.83682817      11.77487979       1.37067868      -0.00006523      -0.00185244      -0.00040153
Cu       7.71810055       7.87713131      -0.02276865       2.97740807       0.00039174      -0.00143153      -0.00053702
Al       7.84093759       9.82905783       1.99450436      -3.23269816       0.00064809      -0.00024604       0.00011375
Cu       9.78221490       7.88153542       1.99510083       2.94606345      -0.00073381       0.00014287      -0.00038611
Au       9.72707105       9.75434850       0.04407675      -0.83681553      -0.00076768       0.00029972      -0.00087815
Cu       7.88151409       7.86395215       3.95609633       3.09973645      -0.00001893       0.00026005       0.00083567
Au       7.85173604       9.77552945       5.85140226       0.40115791      -0.00023163      -0.00043112       0.00152627
Cu       9.83781277       7.84413777       5.80269024       3.00189261      -0.00004685      -0.00054988       0.00085775
Au       9.79034129       9.77677363       3.91507097      -0.87839304      -0.00019257       0.00017602       0.00086694
Al       7.81418291       7.92664924       7.92146032      -1.88338775       0.00072863      -0.00119107      -0.00056735
Cu       7.72496711       9.92480044       9.91411796       3.04126156       0.00000198       0.00000435       0.00012943
Al       9.86226943       7.88391671       9.80877079      -1.77077661       0.00120223      -0.00238149      -0.00165562
Al       9.84752443       9.75287209       7.84930126      -2.21294977      -0.00021763       0.00013903       0.00055123
Au       7.73906868       7.94125323      11.71250961       0.14123576       0.00070186      -0.00081009      -0.00092660
Au       7.74081708       9.83764863      13.69220146      -0.55627113       0.00052987       0.00030561      -0.00003965
Al       9.78535388       7.88412815      13.68470474      -2.63835511      -0.00011709      -0.00101743      -0.00091665
Au       9.81771055       9.90354795      11.73008901       0.53524945      -0.00012022      -0.00133143      -0.00099058
Au       7.86334149      11.86402998      -0.05062536      -0.82848785      -0.00021302      -0.00018573       0.00034967
Al       7.86590383      13.72185896       1.96121637      -2.87715267       0.00007702       0.00041831      -0.00048966
Cu       9.82665563      11.77975286       1.99192452       2.67175549       0.00011986       0.00127299       0.00031325
Cu       9.76097437      13.68580803      -0.05955664       2.61024483      -0.00104106       0.00012062      -0.00057165
Cu       7.87129861      11.81433653       3.94923164       3.05971852       0.00140783      -0.00000243       0.00065290
Cu       7.86460445      13.67198624       5.88691195       3.31051886       0.00049678      -0.00024707       0.00107518
Al       9.80581422      11.73832137       5.91810887      -2.72633638      -0.00036940       0.00120802       0.00136896
Au       9.81941753      13.65840299       3.91427730      -0.03712449       0.00030295       0.00045148       0.00019495
Au       7.77613125      11.77092477       7.94948746       0.49356303       0.00044923       0.00106178       0.00048156
Al       7.75646551      13.80439070       9.85322537      -2.31995319       0.00003732       0.00168682      -0.00005031
Au       9.86164082      11.79808704       9.77050554       0.51073749      -0.00009265       0.00036874      -0.00032523
Au       9.83268425      13.78418851       7.82885651       0.48361561       0.00040530      -0.00026471       0.00139925
Al       7.78184252      11.85911267      11.78079283      -3.07392245      -0.00008656       0.00023398      -0.00035445
Cu       7.83463945      13.77307883      13.75639175       2.52029427       0.00002531       0.00150219      -0.00075132
Cu       9.75927485      11.74257255      13.78776337       3.06730621      -0.00014522      -0.00018739      -0.00041660
Al       9.77485289      13.73279029      11.81986052      -2.04579023      -0.00019201       0.00146202      -0.00109008
Au       7.86453211      15.63746851       0.01707482      -0.19243340      -0.00060162       0.00075090      -0.00106873
Au       7.80657484      17.67987783       2.08711962      -0.54648552      -0.00138171       0.00050247       0.00001291
Al       9.84327562      15.67531893       2.00680328      -2.23178669      -0.00100019      -0.00067004      -0.00031275
Al       9.78081532      17.63764854       0.02738913      -2.52412518       0.00092967      -0.00133949       0.00124137
Al       7.83567267      15.68587661       3.92374226      -2.34397783      -0.00074426       0.00059641       0.00048478
Au       7.74693848      17.72514837       5.72985798       0.09158646      -0.00063297       0.00095766       0.00102130
Al       9.82127674      15.73226466       5.78609268      -2.16783702      -0.00091189      -0.00148540      -0.00093119
Cu       9.79446640      17.77068096       3.81413451       3.11693480      -0.00057231      -0.00046125       0.00039129
Au       7.77654445      15.67265826       7.77892200       1.06646854       0.00016179       0.00165391       0.00034860
Au       7.73704994      17.47333962       9.92648149       0.24689564      -0.00034700       0.00049968       0.00024354
Al       9.83861223      15.61995711       9.85374463      -1.95495053       0.00007293       0.00223709      -0.00028357
Al       9.80247833      17.55921455       7.83201070      -1.54730015      -0.00108635       0.00050160      -0.00025262
Cu       7.73152225      15.61737174      11.83384255       2.95159719       0.00010858       0.00168079      -0.00015939
Au       7.80036565      17.54870385      13.62654299      -0.22838214      -0.00027592       0.00109466       0.00044057
Cu       9.67783541      15.61292362      13.75087773       3.06830564      -0.00029095       0.00083295       0.00001049
Al       9.85803947      17.54533958      11.82084825      -2.05909658       0.00046924       0.00139281       0.00051698
Cu      11.71036839       0.12210752       0.04346613       2.54031927       0.00018518      -0.00195865       0.00104508