399
Lattice="19.59262691714357 -0.0029401591670048664 0.00043227724696582155 -0.0029405439160256983 19.594541571232078 0.002722427805357169 0.0003459403246241731 0.002177382872289726 15.670877927394494" Properties=species:S:1:pos:R:3:energies:R:1:forces:R:3 energy=11.885137728261338 free_energy=11.885137728261338 stress="0.0005361581654671882 6.578994448920507e-05 -0.00014897535209258995 6.578994448920507e-05 0.00037778451335014694 -0.00018127578328396772 -0.00014897535209258995 -0.00018127578328396772 0.0009647762931350716" pbc="T T T"
Au      -0.00770820       0.03896444       0.05423757      -1.22204487      -0.00186274       0.00134536       0.00020706
Cu      -0.07597007       1.89413948       1.88995731       2.71039943      -0.00046057       0.00025919       0.00060747
Cu       2.04788774      -0.05492064       1.94447300       3.19839270      -0.00020958       0.00108956      -0.00122491
Al       1.97639681       1.91888918       0.11071728      -3.30145590      -0.00010045      -0.00015895       0.00086207
Al      -0.06829212      -0.02172820       3.85638055      -2.45761182      -0.00029650      -0.00031852      -0.00071010
Al      -0.07508454       1.97501694       5.79652886      -1.87695003       0.00088041      -0.00024641       0.00004427
Al       1.90759465      -0.00962669       5.82683137      -2.18750232       0.00068278       0.00002948       0.00044671
Al       1.91015503       1.88359788       3.78383522      -2.80546911      -0.00132255      -0.00158551      -0.00054475
Al      -0.07186392      -0.02194545       7.75541271      -2.47265280       0.00192122      -0.00050203       0.00000000
Au       0.01358105       1.92347746       9.76627050      -0.02597263      -0.00093718       0.00009058      -0.00258953
Cu       1.88313507      -0.11955345       9.81348273       2.17661776      -0.00027705      -0.00177870       0.00129112
Au       1.95604562       1.89855751       7.87544620      -0.58099091       0.00000589      -0.00136427      -0.00046191
Cu       0.04073712      -0.12038889      11.75007346       2.00519141      -0.00099778      -0.00099898       0.00083360
Cu       0.02475030       1.86978051      13.77504226       2.54212183      -0.00001356       0.00138615      -0.00030220
Au       1.91406101      -0.08082790      13.66858798      -0.26934283      -0.00052677      -0.00045457      -0.00050111
Au       1.90920917       1.85508217      11.70079015      -0.90197688      -0.00184204       0.00237941       0.00009242
Cu       0.03450853       3.83335720       0.09144872       2.22729360      -0.00091685       0.00157702       0.00055697
Cu      -0.08454270       5.78765094       1.85492350       2.75303867       0.00165509       0.00023252      -0.00117370
Cu       1.88724873       3.83596442       1.93113670       2.86087485      -0.00018690       0.00094731       0.00050191
Au       1.93890710       5.77838412       0.07857639      -0.35542175       0.00036967       0.00008292      -0.00193833
Al      -0.04762431       3.86191896       3.79749253      -2.51209333       0.00090325      -0.00038516      -0.00110249
Au       0.00985618       5.76049027       5.91417409       0.15101810       0.00154632      -0.00075711      -0.00062022
Au       2.03025218       3.77461204       5.80684819       0.33395474       0.00170863       0.00097548      -0.00031701
Al       1.91460929       5.76667622       3.82161614      -2.28268474       0.00067630      -0.00000868      -0.00182772
Cu       0.12233964       3.86910109       7.82524337       3.31249568       0.00009098       0.00046014      -0.00065301
Au       0.06394378       5.83120465       9.71458626       0.58825976       0.00057927       0.00013498       0.00133730
Cu       1.96684381       3.82740303       9.80319810       2.85591792       0.00026566      -0.00008152       0.00063072
Al       1.98517991       5.85611723       7.82210328      -3.21424218       0.00131729       0.00000635       0.00131518
Au       0.02172650       3.90034527      11.77813467       0.29764314       0.00022611       0.00158954      -0.00044446
Au      -0.02633220       5.84805534      13.84600918       0.38777229      -0.00039374       0.00016660      -0.00063256
Au       1.92276129       3.83331384      13.78712033       0.17880995       0.00129492      -0.00103457       0.00118839
Al       1.98625258       5.86614357      11.81773290      -2.75910351      -0.00052998       0.00068090       0.00185089
Al       0.02067762       7.83151406       0.06632942      -2.94472766      -0.00093575      -0.00141175      -0.00006198
Au       0.05448318       9.79813999       2.05735836      -0.06261925       0.00064256      -0.00201167      -0.00003910
Al       1.94997209       7.83829661       1.94667880      -2.38623940      -0.00096697       0.00036267      -0.00154802
Cu       1.99408652       9.86272944       0.01758249       3.00797882      -0.00072720       0.00163075       0.00009749
Al       0.06579975       7.76563186       3.95363335      -2.58104924      -0.00038045      -0.00055484      -0.00108312
Al       0.06306107       9.75287335       5.92793478      -2.70710997      -0.00051081       0.00106494       0.00049180
Cu       1.96488792       7.80963772       5.93176347       3.13529739       0.00064919      -0.00016684      -0.00172510
Cu       1.93739109       9.91274332       3.92988628       3.07346332      -0.00124181       0.00004431      -0.00001548
Cu       0.00792191       7.73157319       7.76721032       3.55335566      -0.00029394      -0.00054580       0.00091823
Al       0.02284529       9.80402182       9.71078637      -2.22913118       0.00078130       0.00007244       0.00028428
Al       2.02698969       7.90964772       9.78604018      -2.19613700      -0.00066080       0.00137159       0.00180837
Al       2.00839902       9.79989557       7.89870133      -2.11182469       0.00049457       0.00071773       0.00098010
Al       0.09977824       7.85900885      11.74422852      -2.15094939       0.00026575      -0.00000744       0.00054823
Au       0.18761631       9.80405488      13.69168854       0.00999231      -0.00176314       0.00060587       0.00004275
Cu       1.96838299       7.81268883      13.78860292       3.08971072      -0.00156983       0.00119308      -0.00066601
Cu       2.03029457       9.94427457      11.72792085       2.94776371      -0.00307753       0.00035438       0.00017696
Al       0.10182395      11.85829287      -0.02994958      -3.03448909      -0.00273564      -0.00158740       0.00029390
Cu       0.08091548      13.78730003       2.02413473       2.85593301      -0.00140993      -0.00122044       0.00063442
Au       1.90052540      11.81894719       1.98361657      -1.09102203      -0.00220381      -0.00084241       0.00147101
Cu       1.97762979      13.84620477      -0.06491369       2.22497674       0.00097296       0.00354445       0.00085823
Cu       0.02464115      11.80982887       3.97708027       2.74408744      -0.00086074      -0.00122228       0.00081360
Au       0.02811753      13.81426334       6.07288206      -1.60554228       0.00021314      -0.00025708      -0.00009732
Au       1.87288265      11.80781260       5.94101078       0.07561707       0.00033334      -0.00013515       0.00005867
Au       1.86766858      13.81400708       3.95392060      -0.42267779      -0.00021493       0.00038767       0.00008555
Cu       0.04190063      11.89494699       7.88900729       3.23574114       0.00178726       0.00036396       0.00033034
Au      -0.05007003      13.78854339       9.69885535      -2.02652805       0.00009015      -0.00019899      -0.00109797
Au       2.03639962      11.88408461       9.82886162      -1.43785188      -0.00379783      -0.00027888      -0.00063452
Cu       1.92763996      13.81877001       7.92016557       2.67630644      -0.00146045      -0.00119951      -0.00134029
Au       0.01809528      11.80342007      11.66535378      -0.45605269      -0.00013112      -0.00099422       0.00054623
Au       0.02857694      13.82833550      13.59185779      -0.69492931       0.00076270       0.00171824       0.00091409
Au       2.03481012      11.92186256      13.60323404      -1.27224246      -0.00195936       0.00295255      -0.00019820
Cu       2.03249165      13.79940773      11.72472703       2.01104339      -0.00014466       0.00137455       0.00209362
Au       0.05243758      15.61053221      -0.00140197      -0.53633931       0.00064705      -0.00316763      -0.00259491
Al      -0.00776759      17.68383440       1.98745781      -2.49479217      -0.00114078      -0.00023174       0.00059274
Cu       1.90107826      15.65859497       1.92005605       2.70412581       0.00150536      -0.00182036      -0.00145495
Au       1.96521602      17.56248366       0.04624168      -1.26851373       0.00024287      -0.00107211      -0.00029132
Au       0.00833990      15.78807705       3.96842641      -0.32677621      -0.00000318      -0.00134288      -0.00038927
Cu      -0.09310467      17.59944120       5.87712107       2.87169295      -0.00018227      -0.00066117       0.00008311
Cu       1.85406246      15.76858403       5.99528248       2.62310421       0.00054848       0.00038263       0.00151366
Al       1.97028866      17.65191708       3.92715238      -2.63207049      -0.00154346      -0.00014474       0.00008354
Cu       0.01863086      15.72625718       7.91084243       2.24082213      -0.00147378       0.00093716      -0.00015738
Cu       0.00549236      17.60125515       9.83060248       2.17136733      -0.00056544       0.00149277       0.00120330
Au       1.93497824      15.70660983       9.83944037      -2.46116929      -0.00060231       0.00148127      -0.00140540
Au       1.85039268      17.64113212       7.84299436      -1.57701917      -0.00337971       0.00044660      -0.00139714
Al      -0.07315892      15.70631148      11.67362549      -4.13601019      -0.00155125      -0.00166009      -0.00123213
Au      -0.01970114      17.58308287      13.64949235      -1.40455705      -0.00043708       0.00147755       0.00076863
Cu       1.95315508      15.67147378      13.65497680       1.91191106      -0.00309801      -0.00231121      -0.00022370
Cu       1.91586458      17.60710653      11.70885045       1.99469022       0.00064443       0.00171605      -0.00053081
Au       3.88579021      -0.08522972       0.06622946       0.11776754       0.00044349       0.00022949      -0.00370301
Cu       3.91533458       1.92163230       2.06079336       2.58011179      -0.00070500       0.00019917       0.00019867
Al       5.80366227      -0.06499271       1.98577638      -3.46810947       0.00114072      -0.00168263       0.00040521
Al       5.78825717       1.93935282       0.03552381      -2.30250508       0.00111728      -0.00139203      -0.00093961
Au       3.93509021      -0.03983431       3.91356270      -1.43627636      -0.00091942      -0.00067308       0.00105272
Cu       3.94781907       1.85191875       5.84219540       2.66823420       0.00030861       0.00061126      -0.00149372
Cu       5.80996673      -0.01872902       5.79243945       1.87879874      -0.00016370       0.00026373       0.00027013
Cu       5.81136118       1.87236127       3.94801126       1.74888997      -0.00039258      -0.00034004      -0.00062195
Au       3.86109490      -0.04369534       7.87236829      -0.98178150       0.00070773       0.00021055       0.00024403
Cu       3.83126773       1.91515971       9.80766051       2.83450193       0.00064543      -0.00159884      -0.00062568
Al       5.83030463      -0.02156124       9.86157420      -2.93683707       0.00043183      -0.00068293      -0.00010188
Au       5.87449935       1.83665952       7.77055156      -0.29392554      -0.00112135      -0.00020844      -0.00014490
Al       3.88174297      -0.10402160      11.67054084      -3.27389570       0.00007025       0.00055321       0.00248785
Al       3.92354995       1.90003693      13.70488342      -2.31110119       0.00085772       0.00019594       0.00044537
Au       5.81092740      -0.11023522      13.64396023       0.27842940      -0.00240380      -0.00309250       0.00032758
Cu       5.86535415       1.94750812      11.77805521       3.10713473       0.00025693       0.00022922       0.00008177
Al       3.94237571       3.85380584       0.07514511      -2.54327121      -0.00051874       0.00004851       0.00036904
Al       3.91625497       5.77744419       2.01835547      -2.26249748       0.00013013      -0.00008932      -0.00155944
Cu       5.78507466       3.73914825       2.11723938       2.96083310       0.00027088      -0.00117505      -0.00003273
Au       5.78913126       5.90292981      -0.05152844      -0.20904853      -0.00136706       0.00064330      -0.00044253
Cu       3.89383562       3.71589785       3.86973285       2.40202136      -0.00051730       0.00026271       0.00024751
Au       3.83318725       5.89895244       5.82582771       0.52801971       0.00106131       0.00028146      -0.00080072
Al       5.77863882       3.86011243       5.82544315      -3.01142953       0.00012058      -0.00014816       0.00019387
Al       5.81002590       5.87626240       3.90585634      -2.35964924       0.00077480       0.00071331      -0.00164587
Au       3.89742386       3.80130095       7.87165970       0.13537860      -0.00043594       0.00047608       0.00040252
Au       3.87394647       5.86002533       9.79659199       1.00623208      -0.00008203       0.00004101       0.00061315
Al       5.87297956       3.81109164       9.80453585      -2.35687687      -0.00037184      -0.00008425       0.00058035
Al       5.83743744       5.88119976       7.84008387      -2.05275893       0.00042215       0.00127642       0.00033336
Au       3.91225034       3.82786127      11.75943097      -0.30660952       0.00015930      -0.00128383       0.00021415
Cu       3.87237969       5.88235319      13.76898285       2.76448760      -0.00023542       0.00052800       0.00043929
Cu       5.79486676       3.95181144      13.67964833       3.27621186       0.00004442      -0.00162559      -0.00044051
Al       5.79326124       5.90411499      11.79013179      -2.60621989      -0.00099602       0.00041369       0.00267504
Au       3.83690470       7.87650619      -0.06208909      -0.78509160      -0.00143416      -0.00076276      -0.00125516
Cu       3.82361611       9.87920186       1.90707228       2.78741832      -0.00151835      -0.00061150      -0.00074556
Au       5.80406868       7.90426928       1.96440064       0.53198463       0.00034595       0.00076056      -0.00092402
Au       5.81449411       9.83160814      -0.01589291      -0.33205970       0.00064111       0.00182487       0.00018953
Au       3.76040975       7.97397341       3.92282549       0.49039875      -0.00040558       0.00125888      -0.00211359
Al       3.84641814       9.84803220       5.93488283      -2.31135499       0.00052416       0.00186878       0.00021491
Au       5.81412118       7.88283132       5.87499146       0.90221579      -0.00013587       0.00226123      -0.00077555
Al       5.86917255       9.84824028       3.89421948      -2.72474229       0.00012542       0.00075039      -0.00036949
Cu       3.90784411       7.82439522       7.81132526       3.45136790      -0.00064268       0.00152090      -0.00050524
Cu       3.91706744       9.94160845       9.99780713       2.41513159       0.00006094       0.00059627      -0.00082459
Au       5.71486016       7.99087376       9.82491660      -0.02184251      -0.00179566       0.00152555       0.00144230
Al       5.77288787       9.89027031       7.92117735      -2.51503581      -0.00274583       0.00048764       0.00013207
Au       3.86281861       7.92320847      11.88446483      -0.65984730      -0.00019125      -0.00033210       0.00038856
Al       3.86352451       9.89226689      13.67764377      -3.72239428       0.00032438      -0.00046155       0.00214172
Cu       5.84454279       7.88142596      13.73802671       2.72325126       0.00062113       0.00141835      -0.00164302
Cu       5.79776356       9.88115717      11.75212255       2.20458687       0.00226558       0.00274886       0.00163250
Au       3.82064785      11.88763017       0.00043413      -0.57542094       0.00004418      -0.00163980      -0.00084461
Al       3.87962869      13.87111228       1.96451327      -3.28253578      -0.00148244       0.00068804      -0.00145547
Au       5.84232183      11.81881541       1.92398027       0.52418392       0.00247491       0.00169821       0.00081417
Au       5.76284310      13.94722361      -0.11931646      -0.72483659       0.00511514       0.00564947      -0.00437147
Au       3.85637683      11.76413733       3.91041010       0.34698523      -0.00126372       0.00105662       0.00030323
Al       3.83310668      13.78078505       5.90607963      -2.21613814      -0.00134334       0.00061483       0.00174070
Au       5.93801975      11.83374887       5.86343192       0.76516824      -0.00063439      -0.00018409       0.00073597
Au       5.92013887      13.75358476       3.90755834       0.70969718       0.00003506      -0.00044909      -0.00134506
Al       3.91279362      11.86347564       7.92182965      -2.23302812      -0.00062654      -0.00114611      -0.00198155
Cu       3.87685103      13.82979996       9.89044438       2.08750449      -0.00153359      -0.00024557       0.00169829
Cu       5.75123614      11.80295225       9.97526936       2.28793531      -0.00074291       0.00031737       0.00275698
Al       5.80530719      13.76005112       7.94007471      -2.40639576       0.00094597      -0.00142317      -0.00180997
Cu       3.90947674      11.92493330      11.70987681       1.81134080       0.00304959      -0.00055858       0.00089987
Cu       3.80885445      13.89730885      13.67277264       1.65546094       0.00288251       0.00263836      -0.00020265
Au       5.76143347      11.91831635      13.64951743      -0.57678395       0.00254412       0.00182759      -0.00233042
Au       5.70969196      13.93063335      11.80527961      -2.06770819      -0.00056215       0.00046688       0.00388459
Cu       3.77026255      15.68338137       0.00356151       2.07964834      -0.00105180      -0.00183750       0.00033089
Cu       3.87643080      17.53482271       1.93362665       2.41673098      -0.00219490       0.00015293      -0.00224072
Cu       5.84091429      15.77670650       1.99440068       2.92386999       0.00124300      -0.00073599      -0.00072330
Au       5.78081679      17.44725070       0.00552222      -0.78498708       0.00370688      -0.00081672      -0.00461777
Al       3.86686301      15.77606862       3.95671025      -2.68999188       0.00023966      -0.00003001      -0.00001318
Cu       3.91764178      17.68826502       5.93260493       2.90468652       0.00067703      -0.00073740       0.00062838
Al       5.83010012      15.69462879       5.84437785      -2.32923545       0.00101834      -0.00104321       0.00198368
Cu       5.79381382      17.68544521       3.92001981       2.62108923       0.00021632      -0.00081352       0.00026588
Au       3.82649170      15.71029851       7.86780943      -1.00515511       0.00139285      -0.00015688      -0.00160106
Cu       3.82560626      17.56841253       9.81098261       2.21758517      -0.00185185      -0.00056735      -0.00136471
Cu       5.68723484      15.75220055       9.85310391       2.24860610       0.00049919      -0.00091439       0.00179550
Au       5.80424156      17.63234787       7.84963089      -0.26870901      -0.00068971      -0.00104807      -0.00107026
Cu       3.78416866      15.71766317      11.69034448       1.42519099       0.00431728      -0.00301964       0.00183620
Au       3.87548645      17.43921796      13.63953292      -1.50769636       0.00341701       0.00035282      -0.00018721
Cu       5.79188993      17.43307572      11.76692629       2.19232657      -0.00125621      -0.00026788       0.00398781
Au       7.80841918      -0.05643020      -0.00220901       0.18433505       0.00099669      -0.00195325      -0.00163046
Au       7.75676049       1.86931491       1.98682791      -0.46074508      -0.00104761      -0.00143963      -0.00046773
Cu       9.76462939       0.04075115       1.93869180       2.32390190      -0.00004835       0.00003874      -0.00000599
Cu       9.77683101       1.84848013       0.05786398       2.57096452       0.00097233       0.00078185      -0.00010391
Cu       7.74585958       0.02117352       3.91778095       2.21743658      -0.00061737      -0.00079312       0.00104505
Cu       7.75021046       1.86603430       5.78022319       2.50002912      -0.00071835       0.00049081       0.00107594
Al       9.78393417      -0.04785634       5.82197587      -2.56278572      -0.00039408       0.00096908       0.00106527
Au       9.75824170       1.86628629       3.84894113      -0.66072190       0.00141711       0.00047627       0.00064405
Al       7.82774875      -0.06466916       7.85598873      -2.28073295       0.00036781       0.00113392      -0.00088462
Cu       7.83478206       1.93430494       9.80514753       3.43159468      -0.00050201      -0.00030341      -0.00078957
Al       9.79703660      -0.05542245       9.83177972      -1.74957171      -0.00099486       0.00048543       0.00151962
Au       9.76384698       1.92820498       7.80083886       0.77798466       0.00021839      -0.00116719      -0.00073202
Au       7.79952490       0.02133130      11.74115619       0.10018154       0.00269956      -0.00070184      -0.00090625
Au       7.74131463       1.98731226      13.73418017       0.01858740       0.00121738       0.00202145       0.00075999
Au       9.83878820       0.03041154      13.76587737       0.11062130       0.00076449      -0.00102450       0.00056704
Au       9.83504185       2.02427752      11.77319423       0.73064425       0.00047196       0.00146391      -0.00075242
Al       7.71478970       3.91507827       0.07253075      -2.36908629      -0.00036039      -0.00043547       0.00083897
Al       7.74604671       5.92223602       1.98181045      -2.51236129      -0.00010282       0.00107222      -0.00131281
Al       9.75128357       3.89534973       1.91015097      -2.25074179       0.00066322       0.00020893      -0.00047717
Au       9.75053327       6.07020964       0.06935573       0.64740219      -0.00040317      -0.00004696      -0.00107595
Au       7.73280047       3.83281351       3.91960537       0.01339656       0.00055817       0.00099277       0.00001409
Au       7.83876796       5.97158020       5.85261187       0.33550966      -0.00063653       0.00035188       0.00047889
Au       9.79307447       3.90398091       5.80334454      -0.28562224      -0.00092591       0.00124304      -0.00036929
Au       9.78123082       5.96232657       3.89901164      -0.48121508      -0.00093620      -0.00035169      -0.00097817
Au       7.80723894       3.84233438       7.77655038       0.75065103      -0.00017164       0.00026228       0.00004002
Al       7.80193417       5.89717159       9.77802209      -1.29778513      -0.00069938       0.00018503       0.00185655
Al       9.81446608       3.92805243       9.76096444      -2.24845828      -0.00110599      -0.00032671      -0.00128677
Au       9.87453195       5.95076541       7.73948655       0.62962375      -0.00120642       0.00050649       0.00166325
Al       7.77005459       3.91206492      11.75154150      -2.34697433      -0.00083128      -0.00011057       0.00013651
Au       7.76334717       5.93785865      13.73597472       0.19088666      -0.00041320      -0.00032116       0.00046633
Au       9.78205754       3.91624441      13.84542126       0.53058138      -0.00081178      -0.00039442       0.00081115
Au       9.82143658       5.83751104      11.77773950       1.36637672      -0.00032018      -0.00024693       0.00176248
Cu       7.71844870       7.87856199      -0.02031469       2.96762208       0.00056614      -0.00043156      -0.00022537
Al       7.83437728       9.84647029       1.98505746      -3.21996611       0.00071699      -0.00024114      -0.00014954
Cu       9.77574650       7.88692089       1.99094832       2.92191609       0.00075172      -0.00027402       0.00025051
Au       9.72229319       9.76743753       0.04313252      -0.83521534       0.00023684      -0.00114471      -0.00017093
Cu       7.87908183       7.87061885       3.95158451       3.08143860      -0.00058397       0.00063995      -0.00041937
Au       7.84897957       9.78243245       5.84969262       0.40102150      -0.00045315       0.00066234      -0.00020468
Cu       9.83246293       7.84989009       5.80007706       2.98814053      -0.00000520      -0.00168253      -0.00001952
Au       9.78523217       9.78407917       3.90971836      -0.87648982       0.00036721      -0.00078697       0.00095117
Al       7.80906548       7.93172847       7.92123114      -1.87264523      -0.00103011       0.00121993       0.00032560
Cu       7.71438332       9.93770610       9.92273914       3.02632580       0.00074737      -0.00014534      -0.00011886
Al       9.85855389       7.88628937       9.80890053      -1.76227236      -0.00058755       0.00128803       0.00139672
Al       9.83961920       9.76192702       7.85311691      -2.20326253      -0.00014766      -0.00015077       0.00031455
Au       7.73687973       7.94254845      11.71199162       0.14336308      -0.00164437       0.00042076       0.00067277
Au       7.73990983       9.83840222      13.69374835      -0.55558137       0.00075339       0.00129411      -0.00032953
Al       9.78341825       7.88656944      13.68801458      -2.63862251       0.00025139      -0.00141449       0.00069668
Au       9.81115411       9.90824339      11.73143502       0.52682470       0.00169062      -0.00086242      -0.00048873
Au       7.84762191      11.88765149      -0.06881154      -0.82575147       0.00192339       0.00041920       0.00079231
Al       7.84971467      13.73518472       1.94190594      -2.86489801       0.00059255      -0.00012428      -0.00094953
Cu       9.82187080      11.79068932       1.98253027       2.65714639       0.00095750      -0.00052465      -0.00044574
Cu       9.76726813      13.68571942      -0.06290275       2.61819032       0.00191595       0.00028698       0.00036179
Cu       7.86967952      11.82185189       3.94007208       3.05938746      -0.00140872      -0.00012875      -0.00018506
Cu       7.86441418      13.67156773       5.88646660       3.32551354       0.00208197       0.00115079       0.00056326
Al       9.80197570      11.74457790       5.91702915      -2.72349578      -0.00051414      -0.00178684       0.00150769
Au       9.81411744      13.65973832       3.90490586      -0.04834923       0.00139180       0.00068623       0.00040923
Au       7.76990195      11.78254313       7.95877344       0.49772211       0.00299512      -0.00004584       0.00092919
Al       7.71407398      13.81586974       9.88413552      -2.35704747       0.00104018       0.00169827       0.00171035
Au       9.85227002      11.80808808       9.77832859       0.50570886      -0.00061332      -0.00140796      -0.00026701
Au       9.82564579      13.78519004       7.83689856       0.46790000       0.00042337      -0.00085661      -0.00072107
Al       7.77181452      11.87523444      11.79199774      -3.07112618      -0.00118068       0.00000254       0.00246475
Cu       7.82258985      13.80106416      13.75053547       2.38319920      -0.00220304      -0.00011483       0.00072891
Cu       9.75834594      11.74705807      13.78833788       3.07149314       0.00231766       0.00054552      -0.00029178
Al       9.76955075      13.73774704      11.82862452      -2.04472315       0.00071430       0.00027697      -0.00043298
Au       7.88341930      15.63524953       0.00928632      -0.35586841      -0.00471149      -0.00155615       0.00005506
Au       7.80371703      17.66879796       2.07682562      -0.53653035      -0.00070046       0.00170611      -0.00089938
Al       9.84445723      15.67562506       2.00435230      -2.23982397       0.00158826      -0.00087387      -0.00033351
Al       9.78242940      17.63636610       0.02472924      -2.53188610       0.00183885       0.00264696      -0.00148624
Al       7.83907005      15.68708460       3.92298782      -2.35402792      -0.00031368      -0.00051504       0.00064123
Au       7.74826650      17.72363507       5.73229130       0.09558074       0.00005900      -0.00004978       0.00040025
Al       9.81498868      15.72579824       5.78600473      -2.16024191       0.00042165      -0.00016285       0.00097836
Cu       9.79145695      17.77027134       3.81056150       3.10460358       0.00047259       0.00038780       0.00091359
Au       7.77251128      15.66681868       7.78457410       1.06593503       0.00176869       0.00025653       0.00054704
Au       7.72417826      17.45973182       9.94216097       0.25855076      -0.00144363      -0.00159974       0.00025559
Al       9.82227039      15.61407122       9.86609268      -1.93834155       0.00117973       0.00027862      -0.00003749
Al       9.79240087      17.55118810       7.83807494      -1.54920916      -0.00005690       0.00041844      -0.00030811
Cu       7.71527220      15.62321826      11.87856787       2.75019322      -0.00274986      -0.00110348       0.00307439
Au       7.75765999      17.51202663      13.64558185      -0.51982606      -0.00560825       0.00123948       0.00111443
Cu       9.70141345      15.61909385      13.75712763       3.09645427       0.00197119      -0.00099598       0.00195866
Al       9.84060315      17.53881562      11.83901376      -2.07929915       0.00107221       0.00087095      -0.00070366
Cu      11.71387944       0.11915423       0.04135281       2.53801749       0.00028379       0.00138808      -0.00064793
Cu      11.76928857       1.90087249       1.91266838       2.32908454       0.00052792       0.00083981       0.00028376