399
Lattice="19.59262691714357 -0.0029401591670048664 0.00043227724696582155 -0.0029405439160256983 19.594541571232078 0.002722427805357169 0.0003459403246241731 0.002177382872289726 15.670877927394494" Properties=species:S:1:pos:R:3:energies:R:1:forces:R:3 energy=11.965595996086648 free_energy=11.965595996086648 stress="0.00042010331687043957 7.474895551889077e-05 -0.00010640862332254674 7.474895551889077e-05 5.168077735446334e-05 -9.778165760368952e-05 -0.00010640862332254674 -9.778165760368952e-05 0.0006136280217177065" pbc="T T T"
Au      -0.01984502       0.04203111       0.06400201      -1.22048739      -0.00071985       0.00051144       0.00014067
Cu      -0.08885247       1.89555752       1.89807449       2.72571223       0.00045418       0.00031658       0.00028074
Cu       2.03287905      -0.04613639       1.95161524       3.21132023      -0.00056753      -0.00083537       0.00018649
Al       1.95747594       1.93497105       0.11862996      -3.31458196      -0.00055686       0.00073254      -0.00009335
Al      -0.07556241      -0.02497679       3.86078377      -2.46304045       0.00111872      -0.00031599      -0.00098621
Al      -0.08086658       1.97189223       5.79654908      -1.87200011       0.00191002      -0.00003487       0.00095063
Al       1.90498418      -0.00769792       5.82781973      -2.18829131      -0.00070314      -0.00037623       0.00030420
Al       1.90168482       1.88870850       3.78616108      -2.80629993       0.00036451       0.00004642       0.00246639
Al      -0.07702182      -0.02298845       7.75285047      -2.47696768       0.00097976      -0.00078321      -0.00148583
Au       0.00135032       1.92785875       9.75766783      -0.02347963       0.00056579       0.00048617      -0.00085198
Cu       1.87286896      -0.11085932       9.80698842       2.18823652       0.00006218       0.00046503      -0.00086137
Au       1.95103021       1.89981777       7.87368365      -0.59050056      -0.00162861       0.00126731      -0.00140162
Cu       0.02937451      -0.11749978      11.74396106       2.00432423       0.00045509      -0.00015956      -0.00072058
Cu       0.00348934       1.88964476      13.78539284       2.56377754       0.00013281       0.00122395      -0.00078160
Au       1.87585687      -0.03827462      13.67360536      -0.28183387      -0.00006302       0.00119729      -0.00028930
Au       1.89540429       1.87067776      11.69169048      -0.87774544       0.00030329      -0.00052706      -0.00009348
Cu       0.02300038       3.84163991       0.09499290       2.22756361      -0.00013284       0.00107569       0.00043618
Cu      -0.08850148       5.78761569       1.85846882       2.75021633      -0.00013060       0.00023246       0.00107464
Cu       1.87985360       3.84450389       1.93535791       2.86998601      -0.00086428       0.00032620       0.00141255
Au       1.93573322       5.77965205       0.07612639      -0.35104273      -0.00039774      -0.00011718       0.00026231
Al      -0.05579994       3.86158568       3.80156656      -2.51674146       0.00086707       0.00096233       0.00108920
Au       0.00478561       5.76090461       5.91535613       0.14706851      -0.00066970      -0.00013782       0.00080779
Au       2.02375115       3.77604886       5.80841308       0.33182967      -0.00125022       0.00023593      -0.00038598
Al       1.91110643       5.76740445       3.82530413      -2.29113590      -0.00048700       0.00004600       0.00064687
Cu       0.11183308       3.86801555       7.82038557       3.31435330       0.00017037       0.00123369       0.00001072
Au       0.05603738       5.83015325       9.71140340       0.58603983       0.00017474      -0.00030889      -0.00125495
Cu       1.96048784       3.83220371       9.79813991       2.85719775       0.00010393       0.00130067      -0.00133049
Al       1.98174731       5.85523352       7.82287364      -3.21572942      -0.00001268       0.00084643      -0.00107462
Au       0.01148255       3.90615565      11.77601168       0.30252577       0.00030417       0.00105060      -0.00086329
Au      -0.03199146       5.84853353      13.84501571       0.38892396       0.00017478      -0.00018072      -0.00018050
Au       1.91772124       3.83577373      13.78542310       0.18699540      -0.00040898       0.00042557      -0.00128245
Al       1.98379762       5.86549987      11.81692723      -2.75843398      -0.00088527      -0.00019593      -0.00047680
Al       0.01168456       7.82673361       0.06799761      -2.95154472       0.00029220      -0.00009851       0.00086982
Au       0.04595225       9.79229501       2.06157589      -0.05849809      -0.00087349       0.00075188       0.00064823
Al       1.94417488       7.83322965       1.94852242      -2.39547487      -0.00025719      -0.00079891       0.00048543
Cu       1.98084441       9.84854683       0.01940979       3.01876524      -0.00010999      -0.00046409       0.00028207
Al       0.05902292       7.76418045       3.95614163      -2.58697621      -0.00080261       0.00073119       0.00003192
Al       0.05355325       9.75400669       5.92933131      -2.70898266      -0.00137018       0.00075916      -0.00009653
Cu       1.96058734       7.80706453       5.93161015       3.13612483      -0.00007941      -0.00014035      -0.00029419
Cu       1.93055097       9.90542544       3.93878693       3.07094701      -0.00007974      -0.00018482       0.00078036
Cu       0.00114416       7.73027655       7.76648182       3.56255485      -0.00056054       0.00003939       0.00020584
Al       0.01495136       9.79994276       9.71000311      -2.23305008      -0.00022112       0.00025929      -0.00030371
Al       2.01807764       7.90228240       9.78610812      -2.20791838      -0.00025018       0.00007701       0.00036860
Al       1.99865581       9.79070908       7.89465282      -2.12479014      -0.00004872       0.00029411      -0.00132408
Al       0.09197514       7.85390108      11.74332906      -2.15437516       0.00116496       0.00046571      -0.00038575
Au       0.17575973       9.79706889      13.69071397       0.01496286      -0.00026914      -0.00155963       0.00003257
Cu       1.96587579       7.81318273      13.78716140       3.07270487      -0.00027145      -0.00063390      -0.00009289
Cu       2.02340606       9.93057710      11.72516044       2.93738172      -0.00052152      -0.00112643       0.00011098
Al       0.10218517      11.85966656      -0.02556196      -3.02955813       0.00133939      -0.00144612       0.00103393
Cu       0.08162587      13.78950407       2.02727815       2.85549119      -0.00027075      -0.00094952      -0.00017823
Au       1.88990646      11.80850512       1.99860683      -1.07503346       0.00076735      -0.00000545       0.00166514
Cu       1.99130929      13.84212168      -0.06274815       2.20148910      -0.00000841      -0.00092665       0.00131245
Cu       0.01514957      11.80892209       3.98495470       2.75144937      -0.00105181      -0.00012082      -0.00019882
Au       0.02194815      13.81576268       6.07703105      -1.60799288      -0.00012480       0.00050749       0.00078861
Au       1.86662995      11.80613612       5.94753622       0.07245097       0.00125679      -0.00141008      -0.00066750
Au       1.85964472      13.81133251       3.96523577      -0.40956107       0.00153508       0.00218338       0.00026979
Cu       0.03341310      11.89553513       7.88873623       3.24808094      -0.00128845      -0.00010117       0.00066883
Au      -0.04915507      13.79152057       9.69832577      -2.02343120      -0.00080121      -0.00221439      -0.00058350
Au       2.02501380      11.86977742       9.81735532      -1.43093012      -0.00040474       0.00030566      -0.00169318
Cu       1.92295378      13.82273819       7.91847657       2.65444695       0.00069382      -0.00025174      -0.00124050
Au       0.01487981      11.80249901      11.66281948      -0.45403321       0.00036301      -0.00037283      -0.00180703
Au       0.04034984      13.82820166      13.59292439      -0.68329152      -0.00044644      -0.00167768       0.00001671
Au       2.02377337      11.89811512      13.60273329      -1.27758695       0.00097667       0.00028121       0.00036723
Cu       2.04042975      13.78802733      11.72099713       1.98088769       0.00018901      -0.00047975      -0.00136141
Au       0.06230478      15.60800131      -0.00191308      -0.53043754       0.00020699      -0.00061878      -0.00082873
Al      -0.01167362      17.68104822       1.99020359      -2.48791824      -0.00044775       0.00027592       0.00057835
Cu       1.90414784      15.66020101       1.92096796       2.71022134       0.00029202       0.00001370      -0.00045440
Au       1.96589041      17.56825585       0.05577236      -1.24236951       0.00009865      -0.00052479       0.00101874
Au       0.00743155      15.78878539       3.96837070      -0.32140397       0.00052887      -0.00099086       0.00015678
Cu      -0.09272007      17.59776109       5.87931613       2.88054152      -0.00009315       0.00089859      -0.00035197
Cu       1.85177490      15.77002748       5.99873775       2.62000690      -0.00045289      -0.00149511       0.00052165
Al       1.96643743      17.65412683       3.93030078      -2.63646817       0.00015627      -0.00145093       0.00047846
Cu       0.01699691      15.73032128       7.91339842       2.23810205       0.00138588      -0.00164028      -0.00067827
Cu      -0.00193620      17.60143881       9.82881933       2.16567186       0.00157191      -0.00043247       0.00041736
Au       1.93542131      15.71456168       9.84533910      -2.45678226      -0.00016440      -0.00082193       0.00154435
Au       1.84843462      17.64500552       7.84489735      -1.57841579      -0.00117031       0.00059617      -0.00054253
Al      -0.06789222      15.70493998      11.67726649      -4.11050905       0.00092308      -0.00070010      -0.00059135
Au      -0.00739715      17.57916604      13.65186174      -1.36661906      -0.00107300      -0.00079295      -0.00000254
Cu       1.98521416      15.65637151      13.65710731       1.87545826       0.00014601       0.00065826       0.00068421
Cu       1.90664342      17.62516109      11.69614179       2.01075714      -0.00045207      -0.00033437      -0.00038883
Au       3.86678293      -0.05023921       0.07815498       0.11514587      -0.00050378       0.00048765       0.00005996
Cu       3.90765703       1.93456954       2.06626238       2.58690967       0.00011548      -0.00023414       0.00089163
Al       5.80337749      -0.03697438       2.00348369      -3.47634201       0.00036224       0.00125690       0.00068262
Al       5.79312542       1.94615093       0.03630974      -2.30025947       0.00167053       0.00006289      -0.00024975
Au       3.92808123      -0.03300751       3.91625553      -1.42645079      -0.00194000       0.00002450      -0.00017208
Cu       3.94387291       1.85704379       5.84232575       2.67414045      -0.00050328      -0.00035754      -0.00188076
Cu       5.80609486      -0.01806033       5.78949430       1.89060432       0.00162101       0.00121857       0.00006667
Cu       5.81504521       1.87793643       3.95847368       1.76116806       0.00016103       0.00001671       0.00070907
Au       3.86134335      -0.04025598       7.87020357      -0.98344312      -0.00100332      -0.00093298      -0.00068600
Cu       3.82722756       1.92638692       9.79757691       2.86473928       0.00059159       0.00108790       0.00030775
Al       5.83757387       0.00007125       9.84231065      -2.96452965      -0.00009197       0.00139679       0.00085885
Au       5.87983381       1.83905178       7.75643709      -0.28821171      -0.00046652      -0.00072368       0.00122209
Al       3.87324596      -0.06098432      11.65348335      -3.30101071      -0.00111660       0.00143960      -0.00052974
Al       3.91972334       1.90659176      13.70530165      -2.31096863      -0.00040866       0.00055276       0.00050982
Au       5.81614539      -0.09820653      13.64108390       0.26822121       0.00107765       0.00130322      -0.00008926
Cu       5.86871690       1.95423163      11.77773860       3.12845476      -0.00111468       0.00235310      -0.00166763
Al       3.94024211       3.85484648       0.07448479      -2.53459495      -0.00061561       0.00042603       0.00058219
Al       3.91474520       5.77567759       2.01827013      -2.26424012       0.00031310       0.00050867       0.00045397
Cu       5.78699944       3.73878737       2.12260938       2.95207308       0.00062376      -0.00044414       0.00021216
Au       5.78952301       5.90303304      -0.05323992      -0.21002048       0.00013248      -0.00050860       0.00120106
Cu       3.89293822       3.72020429       3.87733699       2.40218783       0.00083786       0.00104849       0.00008625
Au       3.83269419       5.89510523       5.82846900       0.52487323       0.00053092      -0.00041918      -0.00043638
Al       5.78654355       3.86065474       5.82708239      -3.00312765      -0.00076001      -0.00046746      -0.00103146
Al       5.81187489       5.87461134       3.90611820      -2.36464563       0.00017078      -0.00071727      -0.00023566
Au       3.89652692       3.80168797       7.86863986       0.12027435       0.00044487       0.00033533      -0.00015396
Au       3.87479449       5.85924538       9.79605052       0.99838713      -0.00030786      -0.00044335      -0.00133459
Al       5.87675639       3.80726347       9.79935819      -2.35814498      -0.00050405       0.00036493       0.00085878
Al       5.84196429       5.87548412       7.84338023      -2.04826215      -0.00018340       0.00014359      -0.00022438
Au       3.91242122       3.82869651      11.75673585      -0.30171855      -0.00198872       0.00086203      -0.00025188
Cu       3.87261589       5.88246653      13.76754419       2.76144208      -0.00142734       0.00017650       0.00029741
Cu       5.79755882       3.95182784      13.67762682       3.27115414      -0.00160667       0.00093952       0.00076380
Al       5.79635486       5.90185088      11.78839509      -2.60535668      -0.00077182       0.00077498       0.00000748
Au       3.83618790       7.87549971      -0.06139707      -0.78066433       0.00022771       0.00008465       0.00013368
Cu       3.81625881       9.86714487       1.91853458       2.79779823      -0.00049227      -0.00037225       0.00063812
Au       5.80244971       7.90294491       1.96571343       0.53396289       0.00047238       0.00109629       0.00081066
Au       5.81918113       9.83008293      -0.01264504      -0.32543448      -0.00009710      -0.00099943       0.00036106
Au       3.75738472       7.96827852       3.92574937       0.48318060       0.00017836      -0.00002613       0.00033705
Al       3.84549789       9.84299187       5.93939689      -2.30656853       0.00006355       0.00014121       0.00044336
Au       5.81372250       7.87301474       5.88078841       0.91486737      -0.00058196      -0.00047157      -0.00000459
Al       5.86884133       9.83307653       3.91446137      -2.71091215       0.00033869       0.00001990      -0.00106685
Cu       3.90618951       7.82174383       7.81635012       3.44531883       0.00067505       0.00058324       0.00010206
Cu       3.90737037       9.91797112       9.98168870       2.42154687      -0.00019948      -0.00077493      -0.00101177
Au       5.72085131       7.98832012       9.82335179      -0.03524962       0.00040715      -0.00013497      -0.00134097
Al       5.77826539       9.88177620       7.90867822      -2.53361511      -0.00004231       0.00086258      -0.00054557
Au       3.86430038       7.91940347      11.88169203      -0.66489186      -0.00061608      -0.00023471      -0.00104950
Al       3.86890309       9.88565528      13.67765687      -3.71962683      -0.00013685      -0.00024230       0.00120997
Cu       5.84757560       7.88107723      13.73686798       2.71993576      -0.00145661      -0.00046230      -0.00014792
Cu       5.79842857       9.87910728      11.74741209       2.19589195       0.00026054      -0.00123335       0.00005405
Au       3.80406750      11.85003344       0.01601947      -0.61302192      -0.00069962      -0.00002595       0.00098514
Al       3.85420598      13.85717501       1.99140734      -3.25960232       0.00000905       0.00007771       0.00079529
Au       5.84687203      11.78198649       1.96635094       0.49977571       0.00029275      -0.00188080       0.00033647
Au       5.77034055      13.84504998       0.00971643      -0.28404425      -0.00058968      -0.00104586      -0.00030872
Au       3.85173472      11.75847100       3.92663289       0.36207882       0.00010265       0.00043537      -0.00014877
Al       3.83421901      13.78205558       5.91144071      -2.21209506       0.00071055      -0.00063620       0.00019762
Au       5.94950815      11.84532637       5.86092470       0.76205131       0.00015137       0.00026292       0.00033121
Au       5.92631451      13.76246537       3.90500446       0.71164729      -0.00076816      -0.00040530      -0.00081048
Al       3.91307520      11.85682030       7.91262096      -2.24570261       0.00094416       0.00018210      -0.00101282
Cu       3.83909216      13.82848404       9.85330291       2.19972868       0.00083814      -0.00050541       0.00006384
Cu       5.75653648      11.75858375       9.93918272       2.36524625      -0.00033011       0.00004211       0.00077716
Al       5.81676729      13.77129030       7.94544164      -2.39896971       0.00049382      -0.00091291       0.00136990
Cu       3.89661090      11.88212577      11.69254982       1.82786605       0.00016347       0.00006014      -0.00003539
Cu       3.80002003      13.82769709      13.66890379       1.90364086       0.00079683      -0.00041335       0.00060847
Au       5.76714408      11.92120962      13.65357194      -0.57296805       0.00130214      -0.00052394       0.00029424
Au       5.70661213      13.82524957      11.67653097      -1.71287745      -0.00018986      -0.00051639       0.00045994
Cu       3.79193177      15.68379029      -0.00063332       2.12805629      -0.00002537       0.00019185       0.00124929
Cu       3.86647243      17.54768523       1.94335261       2.42868835       0.00041029       0.00063772       0.00107335
Cu       5.83717111      15.78062284       1.99826396       2.88152211      -0.00007703       0.00036866      -0.00063855
Au       5.77469064      17.51520086       0.04819516      -0.55662674       0.00026169      -0.00016197       0.00040724
Al       3.86163119      15.77697973       3.96223911      -2.68518798       0.00058134       0.00051339      -0.00157315
Cu       3.91663754      17.69118190       5.93397935       2.90468969       0.00226374       0.00063063      -0.00037507
Al       5.82804416      15.69726107       5.84489292      -2.31948122       0.00052007      -0.00116016       0.00198518
Cu       5.78914020      17.68747575       3.91729992       2.60427270       0.00029034       0.00088214      -0.00000882
Au       3.82584708      15.71885701       7.86891648      -1.01147230       0.00054439      -0.00084729      -0.00102138
Cu       3.82286453      17.58033720       9.81484194       2.19486986       0.00176522      -0.00009460      -0.00033251
Cu       5.69330720      15.76465045       9.85989776       2.23478845       0.00042432       0.00014050       0.00096359
Au       5.80804911      17.63265672       7.85170001      -0.26758221      -0.00056943       0.00101671       0.00037127
Cu       3.79986554      15.71472850      11.69322716       1.55323713       0.00015820      -0.00052995      -0.00075724
Au       3.81056764      17.52952487      13.61975577      -1.13697601      -0.00026676       0.00058246       0.00022972
Al       5.77496651      15.63972967      13.66543159      -3.81554474      -0.00054024      -0.00049586       0.00055358
Cu       5.79005775      17.51171987      11.71791619       2.48762353      -0.00106785       0.00079502      -0.00006030
Au       7.81923821      -0.03795519       0.00510681       0.16785476      -0.00004306      -0.00009669      -0.00102506
Au       7.76603408       1.87717517       1.99495598      -0.44807601      -0.00039733      -0.00039257      -0.00140379
Cu       9.77396619       0.04849037       1.93352313       2.32298276      -0.00216325      -0.00059299      -0.00096670
Cu       9.78415548       1.85923736       0.05833191       2.58758479       0.00036738      -0.00011530      -0.00038793
Cu       7.75784509       0.02257679       3.92076981       2.22644365      -0.00022891       0.00025347      -0.00005173
Cu       7.77362885       1.85008778       5.78021785       2.47136270       0.00026689       0.00097642      -0.00099159
Al       9.85879052      -0.12945369       5.80771704      -2.46835144      -0.00076396      -0.00004668      -0.00013605
Au       9.76599309       1.85392107       3.86278239      -0.70469468      -0.00062982      -0.00025069       0.00100394
Al       7.84044713      -0.06584711       7.84006918      -2.29575817       0.00086340       0.00068275       0.00046156
Cu       7.84775841       1.93910073       9.78876164       3.45207107       0.00026317       0.00028540      -0.00143159
Al       9.81050726      -0.04394114       9.82650743      -1.74777825      -0.00015662      -0.00008748       0.00047085
Au       9.77876466       1.90927445       7.77558313       0.75626037       0.00032939      -0.00084025       0.00078795
Au       7.80525257       0.03953567      11.72342000       0.06401680      -0.00067255      -0.00023301       0.00190696
Au       7.74729189       1.99276517      13.73129649       0.01858284      -0.00090476       0.00051378       0.00036230
Au       9.84829447       0.04412226      13.76470330       0.10057949      -0.00114221       0.00094086      -0.00035034
Au       9.84609273       2.03183001      11.76837627       0.73237989      -0.00183119       0.00147915       0.00005025
Al       7.71900496       3.91737001       0.07368957      -2.36720105      -0.00020147      -0.00049010       0.00056939
Al       7.74733144       5.92193925       1.98125712      -2.51170508      -0.00083839       0.00028429       0.00123062
Al       9.75501516       3.89381844       1.91623329      -2.25678570      -0.00076087       0.00041174      -0.00003421
Au       9.75334111       6.06886635       0.06878279       0.64527057      -0.00029203       0.00078636      -0.00017506
Au       7.73995861       3.83213162       3.92593870       0.02212068       0.00018699      -0.00023431       0.00092933
Au       7.84309901       5.96975007       5.85524554       0.33333292       0.00032490      -0.00156388       0.00058149
Au       9.80146497       3.90716213       5.80251308      -0.28816277      -0.00062526      -0.00001145       0.00174840
Au       9.78364143       5.96280582       3.89808303      -0.48990499       0.00019696      -0.00094048      -0.00003424
Au       7.81987877       3.83469913       7.77292302       0.73534051       0.00047716       0.00134458       0.00010018
Al       7.80770814       5.89305237       9.77801754      -1.29800153      -0.00008288       0.00020529      -0.00076709
Al       9.82410422       3.92101699       9.75032608      -2.25613408       0.00000959       0.00051431      -0.00002192
Au       9.87936243       5.95152157       7.74199896       0.63014832       0.00055016      -0.00071122       0.00117835
Al       7.77562491       3.91093131      11.74595391      -2.34547496      -0.00121529       0.00045521      -0.00102465
Au       7.76551257       5.93618136      13.73420298       0.18921710       0.00000583      -0.00017627       0.00059535
Au       9.78638238       3.91888516      13.84483193       0.52970729      -0.00018141       0.00007903       0.00017756
Au       9.82617868       5.83375398      11.77474117       1.36324512      -0.00119965      -0.00040164       0.00025611
Cu       7.72004302       7.87644165      -0.02180456       2.96656907      -0.00082427      -0.00050061       0.00057338
Al       7.84252560       9.83090837       1.99675860      -3.22413692      -0.00024496      -0.00016800      -0.00028545
Cu       9.78278796       7.88145593       1.99239718       2.94199001       0.00169887       0.00008054       0.00046585
Au       9.72849760       9.75719801       0.04574372      -0.82954298      -0.00024996      -0.00156902       0.00134754
Cu       7.88079667       7.86462207       3.95522984       3.09925039       0.00135704      -0.00106370       0.00050882
Au       7.85216437       9.77577517       5.85091151       0.40684219       0.00083070       0.00059171      -0.00044233
Cu       9.83891812       7.84499630       5.80198562       2.99700842       0.00010964      -0.00064507      -0.00042859
Au       9.79289527       9.77546103       3.91448081      -0.87678367      -0.00054709       0.00152094       0.00034697
Al       7.81404608       7.92642519       7.92165378      -1.88192476       0.00050290      -0.00020836      -0.00032377
Cu       7.72619468       9.92648854       9.91197592       3.03647803      -0.00053450       0.00020306      -0.00039668
Al       9.86301744       7.88492174       9.81168693      -1.76891179       0.00026492      -0.00104490      -0.00118785
Al       9.84644529       9.75421938       7.85219197      -2.21078434       0.00129797       0.00025094      -0.00075805
Au       7.73998360       7.94228313      11.71272489       0.14182189      -0.00004309       0.00037049      -0.00090502
Au       7.74191845       9.83972298      13.69332184      -0.55686964      -0.00018671      -0.00094478      -0.00069011
Al       9.78640362       7.88408543      13.68548772      -2.63594086       0.00019917      -0.00015834      -0.00037248
Au       9.81784571       9.90781948      11.72874520       0.53193226      -0.00056179      -0.00114452      -0.00065179
Au       7.86507917      11.86603555      -0.04503745      -0.82662878       0.00093362      -0.00066655      -0.00231334
Al       7.87558329      13.72984974       1.96814861      -2.88384424       0.00072842      -0.00166146      -0.00033100
Cu       9.83094275      11.78919246       2.00180549       2.65132737      -0.00150912       0.00070739      -0.00125690
Cu       9.76202993      13.68754390      -0.05981694       2.61752728      -0.00008790      -0.00048827       0.00017369
Cu       7.88445090      11.82325088       3.95044616       3.04295867      -0.00100128      -0.00143543      -0.00127660
Cu       7.89043238      13.69013872       5.88343433       3.27218128      -0.00007014       0.00157349      -0.00015678
Al       9.80787405      11.73389415       5.91692654      -2.73118145      -0.00088698      -0.00046565      -0.00128118
Au       9.83285668      13.68303797       3.92974504      -0.04172680       0.00116719       0.00167491       0.00156117
Au       7.78055515      11.77782810       7.94684640       0.50400113      -0.00147315      -0.00149033       0.00012908
Al       7.75878607      13.81650737       9.84445110      -2.31679248      -0.00095080      -0.00058348       0.00042860
Au       9.86112716      11.80726482       9.76692017       0.50596180       0.00015502      -0.00102200       0.00179629
Au       9.83818269      13.79615109       7.81259459       0.42712786      -0.00109424       0.00217951       0.00019773
Al       7.78104416      11.86131889      11.77594820      -3.07336697       0.00005866       0.00052589       0.00125103
Cu       7.83437547      13.77095016      13.75730984       2.52410812       0.00029479      -0.00022405       0.00037835
Cu       9.75908316      11.74197049      13.79041429       3.06761978      -0.00019950      -0.00115924      -0.00000394
Al       9.77445483      13.72851332      11.82564272      -2.05020880      -0.00137613      -0.00074994       0.00272114
Au       7.86231463      15.63607101       0.01457969      -0.19814949      -0.00115278       0.00089208      -0.00166372
Au       7.79938798      17.67273788       2.08320495      -0.56713415       0.00174376       0.00172272      -0.00092120
Al       9.84725764      15.67772093       1.99608780      -2.24760263       0.00078916      -0.00008538       0.00088375
Al       9.77658431      17.63832042       0.02419899      -2.52428332       0.00009381       0.00022428      -0.00081520
Al       7.87001905      15.69216135       3.95153090      -2.35176266       0.00043932       0.00052745      -0.00095151
Au       7.74309943      17.73154486       5.72875246       0.08178571       0.00119748      -0.00159672       0.00033885
Al       9.97345184      15.86613215       5.77987363      -2.13221985      -0.00113599      -0.00110516      -0.00068029
Cu       9.80713990      17.77396451       3.76912369       2.97706267      -0.00028697      -0.00102444      -0.00100404
Au       7.80559675      15.68506030       7.74997314       1.03981947       0.00020382      -0.00043959       0.00014962
Au       7.74083867      17.46612641       9.92422880       0.24756000      -0.00057410       0.00164380       0.00077657
Al       9.83923237      15.61137882       9.86534102      -1.96193517      -0.00067185       0.00199414       0.00015738
Al       9.82266708      17.56214340       7.85904808      -1.48513417       0.00211030      -0.00081009      -0.00155763
Cu       7.73309029      15.61643070      11.83815513       2.95695529      -0.00145355      -0.00000357      -0.00039584
Au       7.79621969      17.54967097      13.62879434      -0.22397458      -0.00011114       0.00088152      -0.00043338
Cu       9.67867682      15.61272697      13.75365769       3.06987382      -0.00088356      -0.00181664      -0.00017028
Al       9.85392526      17.54522521      11.82781408      -2.07016521       0.00041174       0.00130751       0.00184448
Cu      11.71935629       0.13152475       0.03735847       2.54962423      -0.00013379       0.00125618      -0.00050408