399
Lattice="19.59262691714357 -0.0029401591670048664 0.00043227724696582155 -0.0029405439160256983 19.594541571232078 0.002722427805357169 0.0003459403246241731 0.002177382872289726 15.670877927394494" Properties=species:S:1:pos:R:3:energies:R:1:forces:R:3 energy=11.961051443243736 free_energy=11.961051443243736 stress="0.0006343394407571022 0.0001654187031873212 -0.00012636142340381366 0.0001654187031873212 0.00015665860808493218 -0.0002399209320798803 -0.00012636142340381366 -0.0002399209320798803 0.0008072820231142143" pbc="T T T"
Au       0.02951934       0.04131272       0.01579702      -1.14712742       0.00131148       0.00782456      -0.00296823
Cu      -0.07157097       1.87879681       1.88155752       2.68959928      -0.00116624      -0.00270490      -0.00219970
Cu       2.03467728      -0.03662260       1.95910656       3.23029675       0.00088580       0.00008634       0.00078466
Al       1.95764529       1.92075179       0.09609716      -3.06287845      -0.00125148      -0.00346705       0.00018548
Al      -0.07172762      -0.02228639       3.86195401      -2.47111150       0.00081802      -0.00039975      -0.00171856
Al      -0.08203252       1.97861531       5.79566354      -1.88615079       0.00073831      -0.00157338      -0.00029092
Al       1.90127793      -0.01069394       5.82737381      -2.19053402      -0.00080958      -0.00080971      -0.00038192
Al       1.90304525       1.88884131       3.79275454      -2.81450032      -0.00067179      -0.00114351      -0.00093557
Al      -0.08016036      -0.02102474       7.75461615      -2.48617756       0.00026176      -0.00128738      -0.00158355
Au       0.02555203       1.91638407       9.78208644      -0.09063379       0.00341634       0.00180124      -0.00058186
Cu       1.87464280      -0.10593353       9.79513838       2.21654618      -0.00047203      -0.00072096      -0.00070097
Au       1.94490132       1.89769414       7.86606439      -0.59017611       0.00036602       0.00074879       0.00030835
Cu       0.04557436      -0.11277534      11.74574157       1.93727560       0.00241082      -0.00383699       0.00351432
Cu       0.01332278       1.87587181      13.77833445       2.45604208       0.00278043      -0.00325597       0.00139490
Au       1.86830277       1.81079703      11.77265471      -0.84919609      -0.00275570      -0.00122783       0.00014021
Cu       0.03014667       3.83705053       0.09125134       2.24561319      -0.00319332       0.00058701       0.00224945
Cu      -0.08791321       5.78619359       1.85560149       2.76399009       0.00066027      -0.00000070       0.00207923
Cu       1.88513845       3.82919787       1.92637211       2.85760251      -0.00054298       0.00310575       0.00219536
Au       1.93641364       5.78154878       0.08173987      -0.35077133      -0.00038409      -0.00151515       0.00153326
Al      -0.05028250       3.85772393       3.79036702      -2.50749103       0.00011337       0.00092580      -0.00063197
Au       0.00901560       5.75301888       5.91575181       0.14358076      -0.00068937       0.00274763      -0.00137196
Au       2.02794651       3.77639909       5.80778639       0.33807141      -0.00233577      -0.00002351      -0.00026974
Al       1.91293721       5.75975631       3.81875145      -2.28661030       0.00008161       0.00041746      -0.00010685
Cu       0.12319244       3.86615715       7.83359103       3.32808395      -0.00366565       0.00047496      -0.00162553
Au       0.06405176       5.82402315       9.72027565       0.59603699      -0.00150676       0.00088882      -0.00097414
Cu       1.96127514       3.80766337       9.82503897       2.83133344      -0.00108762      -0.00234770       0.00098813
Al       1.98427825       5.84646825       7.82993142      -3.20873909      -0.00057693       0.00202219       0.00058288
Au       0.02482473       3.89389349      11.78526688       0.27855890      -0.00115651       0.00001241      -0.00468214
Au      -0.03064474       5.85176568      13.84637836       0.38885453      -0.00217857       0.00151561       0.00118848
Au       1.91713617       3.84426402      13.79211072       0.19407783       0.00076536       0.00112457       0.00134417
Al       1.98424746       5.86633527      11.82119602      -2.76314484       0.00071355       0.00009613      -0.00111096
Al       0.01378506       7.82715208       0.06885993      -2.95801782      -0.00120073      -0.00197009       0.00000560
Au       0.04800808       9.78899676       2.06084789      -0.06213699      -0.00147705       0.00029633      -0.00013523
Al       1.94554887       7.83219925       1.94927004      -2.39759913      -0.00119335      -0.00039248       0.00121839
Cu       1.98153753       9.84684710       0.01901451       3.02444707      -0.00109385      -0.00016196       0.00091981
Al       0.06310469       7.75912697       3.95718850      -2.58823096      -0.00052638       0.00149946      -0.00036029
Al       0.05661442       9.74960565       5.92994986      -2.70197417       0.00087760      -0.00046852      -0.00062366
Cu       1.95871933       7.79959636       5.93565943       3.13741460       0.00100417       0.00136383      -0.00120106
Cu       1.92939912       9.90377753       3.93745741       3.07782334      -0.00061323      -0.00045285       0.00012754
Cu       0.00496933       7.72318834       7.76901565       3.55703917      -0.00047069       0.00280863      -0.00026456
Al       0.01711333       9.79788669       9.70992840      -2.23045960      -0.00088256      -0.00016817      -0.00033609
Al       2.02063539       7.89998038       9.78622802      -2.21430286      -0.00004104       0.00045431      -0.00008574
Al       1.99681100       9.79087899       7.89517262      -2.11925887       0.00067509      -0.00131827      -0.00071178
Al       0.09450413       7.85389252      11.74265768      -2.15838286      -0.00068821       0.00039810      -0.00100234
Au       0.17639863       9.79276238      13.69050357       0.01586337      -0.00117909       0.00189340       0.00024290
Cu       1.96664508       7.81295077      13.78784821       3.08221191      -0.00113344      -0.00159561       0.00070202
Cu       2.02416255       9.92819269      11.72469511       2.94308212      -0.00120617      -0.00046486       0.00068949
Al       0.10389677      11.85446391      -0.02998215      -3.03080494      -0.00005622       0.00059019       0.00168912
Cu       0.08824897      13.80069272       2.00868980       2.83709543       0.00082749       0.00112203      -0.00046636
Au       1.88589661      11.81065947       1.99658818      -1.07365008       0.00155385      -0.00125741      -0.00073187
Cu       1.98453139      13.84410429      -0.06534248       2.19859735      -0.00074939       0.00177638       0.00196226
Cu       0.01777939      11.80806746       3.98108049       2.76499423      -0.00095600      -0.00161539       0.00043156
Au       0.02238017      13.81906765       6.07319310      -1.60775762      -0.00020118      -0.00164535      -0.00119556
Au       1.86330105      11.80765391       5.94470859       0.07026521      -0.00002077      -0.00134618      -0.00051487
Au       1.85461769      13.81821632       3.95864883      -0.40486056       0.00265571      -0.00163989       0.00046339
Cu       0.03515186      11.90075618       7.89232455       3.22950211      -0.00006597      -0.00076502       0.00077696
Au      -0.04634691      13.79420984       9.71191043      -2.03838927       0.00215772      -0.00100575      -0.00190551
Au       2.02493566      11.87069901       9.81930464      -1.43221762       0.00094396      -0.00096140      -0.00154708
Cu       1.92095828      13.82173451       7.91745277       2.65239532       0.00053765      -0.00088160       0.00144243
Au       0.01514278      11.79714091      11.66387197      -0.44914535       0.00032964      -0.00218728      -0.00246867
Au       0.04101982      13.82570632      13.58814959      -0.67967847       0.00055206       0.00280921       0.00233287
Au       2.02287147      11.89565272      13.60141600      -1.27740520       0.00235028      -0.00097575       0.00006422
Cu       2.04098823      13.78908397      11.72222504       1.98281601       0.00101116       0.00030147      -0.00015862
Au       0.07846349      15.63911100      -0.03605018      -0.55589029       0.00208538      -0.00588385      -0.00069481
Al      -0.00648768      17.70023234       1.97775104      -2.50669219      -0.00003174       0.00010337       0.00222836
Cu       1.90022685      15.67305562       1.91178248       2.69710296       0.00026789      -0.00142375      -0.00068506
Au       1.97427415      17.59230245       0.05802532      -1.17140476       0.00130899       0.00413065      -0.00456272
Au       0.00488586      15.79765169       3.96310221      -0.32439991       0.00066612      -0.00069248      -0.00134488
Cu      -0.09838924      17.59992340       5.87905310       2.87974910      -0.00075034      -0.00145154      -0.00082319
Cu       1.84917518      15.77272855       5.99618515       2.62386004       0.00130497      -0.00293048      -0.00102341
Al       1.96564419      17.65563679       3.92857840      -2.63967958       0.00029892      -0.00086309       0.00049130
Cu       0.01535858      15.72551800       7.91387109       2.23426040       0.00071871       0.00142582       0.00020428
Cu      -0.00148705      17.60232575       9.82744752       2.17256917       0.00092954       0.00051085      -0.00051677
Au       1.93695964      15.70813943       9.84033938      -2.48459125      -0.00119381      -0.00124709      -0.00340448
Au       1.84485385      17.64272400       7.84320670      -1.58738447       0.00085357       0.00137825      -0.00136340
Al      -0.05287106      15.73085916      11.70001202      -4.13668570       0.00031648       0.00134390       0.00133759
Au       0.11382227      17.67841323      13.64665653      -1.34443061       0.00488645       0.00381570      -0.00521485
Cu       1.99207482      15.65392939      13.65328731       1.91108583       0.00209348       0.00142137       0.00152809
Cu       1.91166628      17.61750389      11.65855181       1.99307241       0.00035667       0.00079506       0.00223495
Au       3.85773667      -0.05352598       0.07427688       0.18600243      -0.00349116       0.00416918      -0.00123250
Cu       3.90054308       1.92993297       2.05909950       2.58152233       0.00083169       0.00095161       0.00284188
Al       5.79664165      -0.03574861       1.99592958      -3.48102629       0.00020825       0.00121547       0.00048608
Al       5.78405231       1.93683648       0.02223330      -2.30423066      -0.00008951       0.00172188       0.00251077
Au       3.92873777      -0.03192934       3.91859698      -1.44302974      -0.00009610       0.00045900       0.00073392
Cu       3.94403560       1.85582985       5.84261939       2.68304148      -0.00191176       0.00081673      -0.00067657
Cu       5.80864251      -0.01475209       5.79188411       1.88359198       0.00096377      -0.00169365      -0.00060682
Cu       5.80871953       1.88034375       3.95376149       1.75885088       0.00093160       0.00034886       0.00011964
Au       3.85707522      -0.03886171       7.86632699      -0.99207269      -0.00107094      -0.00049455      -0.00018713
Cu       3.78552613       1.90771868       9.82388985       2.80771406      -0.00066364       0.00129988      -0.00045722
Al       5.80849125       0.00852328       9.86556809      -2.98963212      -0.00016168       0.00110691      -0.00150153
Au       5.87148035       1.83934978       7.76602246      -0.26759188       0.00026331       0.00164703       0.00097314
Al       3.82602463      -0.07586605      11.68510374      -3.04606442      -0.00268668       0.00110635       0.00132574
Al       3.85794205       1.84393413      13.71272030      -2.01465678      -0.00255129      -0.00490081       0.00224052
Au       5.81495853      -0.10713495      13.63986750       0.25219731       0.00022404       0.00171607      -0.00227637
Cu       5.84809708       1.94558567      11.80286368       3.12269395       0.00097170       0.00069993       0.00002754
Al       3.93631391       3.84583470       0.06902879      -2.55268766       0.00075966       0.00178157       0.00182211
Al       3.91575132       5.77099632       2.01523364      -2.26699800      -0.00181802       0.00022152      -0.00013926
Cu       5.78172475       3.73482385       2.11368454       2.95301995       0.00067469       0.00062589       0.00090819
Au       5.78442940       5.89695759      -0.05526290      -0.20210990       0.00114104      -0.00097465       0.00045728
Cu       3.89223367       3.71656634       3.87142521       2.40683421       0.00053533       0.00197160       0.00030329
Au       3.83028459       5.89410502       5.83086330       0.52563768      -0.00074275       0.00131111       0.00015370
Al       5.77573723       3.86306774       5.82904047      -3.01445161       0.00056705       0.00000358       0.00057286
Al       5.80698330       5.87391232       3.90511526      -2.36058258       0.00071519       0.00147508      -0.00020816
Au       3.89018625       3.79286883       7.88139163       0.14560553       0.00005238       0.00050325      -0.00022434
Au       3.86990873       5.84734012       9.80696092       1.01779987      -0.00189790      -0.00077356       0.00040693
Al       5.85798791       3.79159741       9.81721414      -2.35410037       0.00087999       0.00122518      -0.00188118
Al       5.83225271       5.87230885       7.84859901      -2.05211120      -0.00134356       0.00131773      -0.00001755
Au       3.88594079       3.79851660      11.77172623      -0.36083551      -0.00047417       0.00039728      -0.00107459
Cu       3.86808634       5.88208490      13.77012120       2.77468136      -0.00025329      -0.00196564       0.00044574
Cu       5.77631736       3.92845565      13.67743617       3.23198748      -0.00209650       0.00211815      -0.00070441
Al       5.78360828       5.88802151      11.79602762      -2.60251062      -0.00145657      -0.00150781       0.00080540
Au       3.83578808       7.87501564      -0.06136797      -0.78659763       0.00061396       0.00002600       0.00174477
Cu       3.81277397       9.86658711       1.91807297       2.79703262      -0.00020774      -0.00032081       0.00037661
Au       5.79924187       7.90106181       1.96442436       0.53769876       0.00095223      -0.00018252       0.00084329
Au       5.81683965       9.82864214      -0.01387615      -0.32291236      -0.00038220      -0.00106209       0.00055374
Au       3.75433120       7.96419082       3.92641182       0.49082658       0.00037736       0.00034151       0.00025267
Al       3.83847272       9.83917551       5.93803825      -2.30994751       0.00073778      -0.00022422       0.00046173
Au       5.81070990       7.87248329       5.88180982       0.91528456       0.00025280       0.00006730       0.00094752
Al       5.86237000       9.83103452       3.91109645      -2.71672839       0.00115337      -0.00015430       0.00126837
Cu       3.90235107       7.81870092       7.81875372       3.44454117       0.00082907      -0.00090130      -0.00023534
Cu       3.90654774       9.91734676       9.98185065       2.42345408      -0.00066081      -0.00114484       0.00014403
Au       5.71589648       7.98208490       9.82491422      -0.03097277      -0.00113181      -0.00081376       0.00039633
Al       5.77276707       9.87790820       7.91137614      -2.53519046       0.00071231      -0.00010675      -0.00079593
Au       3.86382730       7.91847626      11.88260781      -0.66792671      -0.00161085      -0.00061165       0.00026066
Al       3.86809804       9.88463497      13.67762409      -3.72435706      -0.00161225      -0.00142189       0.00100092
Cu       5.84464218       7.87791191      13.73661826       2.72358977      -0.00083738      -0.00054322       0.00062739
Cu       5.79692191       9.87718809      11.74688467       2.19573519      -0.00110963      -0.00164437       0.00131622
Au       3.80012219      11.85134291       0.01504506      -0.61250365       0.00088043      -0.00126308       0.00083642
Al       3.84719238      13.86363129       1.98391203      -3.25920070       0.00119334      -0.00251978       0.00070516
Au       5.83966012      11.78174579       1.95957222       0.49563630       0.00111187      -0.00084685       0.00062578
Au       5.76287209      13.85300397      -0.00129188      -0.30051396      -0.00090789       0.00012954       0.00014915
Au       3.84458141      11.75931658       3.92326129       0.35356693       0.00069793      -0.00206183      -0.00125001
Al       3.82864838      13.78355394       5.90930632      -2.21665166       0.00087962      -0.00159510      -0.00008839
Au       5.93529286      11.83617651       5.86258819       0.75339170       0.00195397      -0.00239584      -0.00068145
Au       5.91219441      13.75532880       3.90227448       0.72379256       0.00247796      -0.00249606       0.00019509
Al       3.90655437      11.85379969       7.91201778      -2.24007561      -0.00011224      -0.00127830       0.00059991
Cu       3.83935755      13.82968531       9.85872619       2.20424912       0.00016836      -0.00174928      -0.00088900
Cu       5.75372581      11.75827687       9.94367758       2.35993452      -0.00132261      -0.00068880       0.00107337
Al       5.80524901      13.75970279       7.95153213      -2.40761658      -0.00012993      -0.00089553      -0.00042576
Cu       3.89554904      11.88104342      11.69402274       1.83247785       0.00006225      -0.00055672      -0.00134211
Cu       3.79832599      13.82398132      13.67006940       1.92413228      -0.00099041      -0.00040160       0.00030787
Au       5.76439977      11.91792834      13.65379473      -0.57448906       0.00101772       0.00010648      -0.00115888
Au       5.70042069      13.83065536      11.68704772      -1.72341486      -0.00002767      -0.00014205       0.00089370
Cu       3.77969086      15.69484833      -0.00986692       2.12752585       0.00105287       0.00011000       0.00070987
Cu       3.86462902      17.55446928       1.94443126       2.45013175      -0.00016466      -0.00104947       0.00177217
Cu       5.82686700      15.78584927       1.98613687       2.88710714      -0.00040493       0.00237752      -0.00106082
Au       5.76236845      17.52282542       0.04018625      -0.55297441       0.00141657      -0.00293453       0.00448837
Al       3.86180133      15.78018891       3.96021360      -2.68149677       0.00195160      -0.00096764      -0.00188896
Cu       3.91777417      17.69181753       5.93272142       2.90510436       0.00082744      -0.00090415       0.00009209
Al       5.82928176      15.69519742       5.84647526      -2.32026038       0.00034859      -0.00177397       0.00123975
Cu       5.78884406      17.69247866       3.91724576       2.60788994       0.00013928      -0.00101424      -0.00035968
Au       3.82731204      15.71907590       7.86574457      -0.99879960       0.00103286      -0.00144706       0.00023786
Cu       3.82118726      17.58371288       9.80923721       2.19463011       0.00045817      -0.00018474       0.00034705
Cu       5.68773700      15.76567672       9.86582828       2.22835508      -0.00063243       0.00025927      -0.00110504
Au       5.80388753      17.64007064       7.85502340      -0.27437857      -0.00016559       0.00068795      -0.00003546
Cu       3.79243528      15.72862397      11.70129814       1.53840691       0.00228644       0.00000804       0.00198439
Au       3.75533920      17.57560313      13.62331271      -1.03789952      -0.00428737       0.00465890      -0.00099547
Al       5.74304858      15.66951203      13.66299835      -3.82990122      -0.00194371       0.00209170       0.00030419
Cu       5.76902578      17.51992376      11.72247039       2.48593757      -0.00143296       0.00122496       0.00129603
Au       7.82089566      -0.04187079       0.00255364       0.16779813       0.00092401      -0.00058348       0.00060981
Au       7.75888515       1.87724045       1.98790378      -0.44936148      -0.00041343      -0.00001734      -0.00003472
Cu       9.76935828       0.04554003       1.94124991       2.32786061       0.00089318       0.00057187       0.00144185
Cu       9.78530910       1.85505562       0.06032211       2.57931421       0.00026287      -0.00008879       0.00061437
Cu       7.74546469       0.02979060       3.92100193       2.22479760       0.00072446       0.00084187       0.00130839
Cu       7.75063466       1.87124938       5.78196161       2.50296269       0.00221902       0.00040601       0.00005485
Al       9.78468044      -0.04565607       5.82075456      -2.56311960       0.00181464      -0.00058376       0.00001122
Au       9.76119641       1.87087232       3.84964223      -0.66080295       0.00072058      -0.00115301       0.00062018
Al       7.82681234      -0.05919080       7.85630196      -2.28948321      -0.00065679      -0.00024018      -0.00008616
Cu       7.83891776       1.94088919       9.79792175       3.46287065       0.00002780      -0.00075103      -0.00047286
Al       9.80712454      -0.04846766       9.82579559      -1.74822438       0.00009862      -0.00038262      -0.00026387
Au       9.76714756       1.93055317       7.79756421       0.77499945       0.00139684       0.00026087       0.00050055
Au       7.80393119       0.04247363      11.72467762       0.06527639      -0.00295704       0.00152031       0.00311120
Au       7.75054200       1.98864042      13.73413940       0.02109231      -0.00133955      -0.00130358      -0.00068619
Au       9.85208177       0.03956390      13.76345791       0.10329473      -0.00160367      -0.00025064       0.00013695
Au       9.84495038       2.03165644      11.76994711       0.73291701      -0.00017952      -0.00100014       0.00089618
Al       7.71190204       3.91384712       0.07023414      -2.36491978       0.00091770       0.00139730       0.00179699
Al       7.74362217       5.92264651       1.97931388      -2.50990346       0.00081802      -0.00020124       0.00021612
Al       9.75198733       3.89906251       1.90953489      -2.25324022       0.00110792       0.00059195       0.00116034
Au       9.74953941       6.07106253       0.06764186       0.64467822       0.00098748       0.00006544       0.00088150
Au       7.73106807       3.83607644       3.92077482       0.01385420       0.00120169      -0.00010371      -0.00076648
Au       7.83779870       5.96838692       5.85523283       0.33249356       0.00105800       0.00038712       0.00030341
Au       9.79325561       3.90559440       5.80419844      -0.28750967       0.00134577       0.00071499       0.00141444
Au       9.78170493       5.96031393       3.89871603      -0.48910542       0.00005726       0.00078411       0.00106158
Au       7.80487803       3.84280579       7.78074732       0.73872769       0.00085969      -0.00159622      -0.00002694
Al       7.79605842       5.88998987       9.78324610      -1.30102064      -0.00033198       0.00007387       0.00086110
Al       9.81663265       3.92953304       9.75880853      -2.25238812       0.00135053       0.00014353      -0.00023483
Au       9.87490419       5.94948824       7.74215294       0.63170871       0.00003429       0.00078188       0.00001214
Al       7.76724649       3.90551937      11.75165370      -2.33817994      -0.00031564      -0.00056104       0.00099553
Au       7.75879423       5.92953581      13.73417569       0.20787389      -0.00066614       0.00212415       0.00158820
Au       9.78536158       3.91848483      13.84699756       0.53020496       0.00020938       0.00030488       0.00002846
Au       9.82041714       5.83454733      11.77825518       1.36434294       0.00068538       0.00024184       0.00042559
Cu       7.71515143       7.87407737      -0.02413507       2.96648120       0.00138948       0.00001223       0.00156881
Al       7.83881592       9.82981608       1.99396812      -3.22540590       0.00139752      -0.00064778       0.00089310
Cu       9.78226112       7.88211578       1.99351524       2.93671959       0.00062412       0.00025210       0.00131614
Au       9.72736121       9.75700719       0.04423557      -0.83288354       0.00194260      -0.00033170       0.00003617
Cu       7.87957459       7.86435410       3.95516981       3.08866540       0.00061140       0.00027393       0.00045410
Au       7.84912568       9.77689798       5.84920623       0.39763825       0.00291513      -0.00108111       0.00087338
Cu       9.83625014       7.84383655       5.80024109       2.98828063      -0.00015335       0.00040775       0.00041905
Au       9.79160653       9.77842854       3.91387106      -0.87375000       0.00054030       0.00039939       0.00100724
Al       7.81059434       7.92477641       7.92158357      -1.88091963      -0.00003180      -0.00027493       0.00050612
Cu       7.72251375       9.92385810       9.91544997       3.02747600       0.00016298      -0.00038437      -0.00029027
Al       9.85858434       7.88301543       9.81105066      -1.76801529      -0.00070850      -0.00051740      -0.00059301
Al       9.84609012       9.75436520       7.84826543      -2.20678853       0.00027094      -0.00136186       0.00083738
Au       7.73344049       7.93672741      11.71413121       0.13518834       0.00022642       0.00001928      -0.00023581
Au       7.73988111       9.83613903      13.69243069      -0.55188987       0.00033500      -0.00084604       0.00062724
Al       9.78236052       7.88311975      13.68571337      -2.63521298       0.00238705       0.00061677      -0.00011271
Au       9.81600685       9.90383494      11.73103980       0.53500417       0.00148312       0.00018560      -0.00108802
Au       7.86083574      11.86677711      -0.05325542      -0.82379020       0.00037698      -0.00038752       0.00018185
Al       7.86275292      13.72504148       1.95706178      -2.87171439       0.00066003      -0.00092516      -0.00068574
Cu       9.82770512      11.78245217       1.99034950       2.66698387       0.00078236       0.00044005      -0.00026495
Cu       9.75756689      13.68932191      -0.06148429       2.60147543      -0.00002476      -0.00045348      -0.00115208
Cu       7.87016064      11.81614671       3.94768855       3.05104409       0.00123296      -0.00091607       0.00007372
Cu       7.86356981      13.67258105       5.88580579       3.30587421       0.00126595      -0.00112271       0.00054298
Al       9.80736014      11.74071766       5.91642432      -2.72154903       0.00022933      -0.00043410       0.00006779
Au       9.81989811      13.65949247       3.91043886      -0.03451087       0.00053239       0.00000990       0.00028166
Au       7.77460578      11.77213459       7.94934174       0.49334554       0.00124079      -0.00210150      -0.00045181
Al       7.75187494      13.80596209       9.85538091      -2.31791883      -0.00002214      -0.00227225       0.00121069
Au       9.86111851      11.79954524       9.77022802       0.51024064       0.00184144      -0.00078011       0.00114547
Au       9.83307339      13.78475691       7.82790012       0.48084463       0.00099416      -0.00079878      -0.00036333
Al       7.78065402      11.86044894      11.78226986      -3.06675856      -0.00063742      -0.00136780       0.00017344
Cu       7.82103613      13.78300606      13.75572703       2.51032582      -0.00045825      -0.00053093       0.00030909
Cu       9.75923709      11.74354827      13.78917312       3.06506997       0.00082109      -0.00094368      -0.00002512
Al       9.77092703      13.73386594      11.82355295      -2.03724520       0.00037089      -0.00056819       0.00040934
Au       7.85565820      15.64398035       0.01420558      -0.20370950      -0.00317201       0.00101506       0.00035460
Au       7.80171553      17.68202853       2.08355786      -0.54753597      -0.00085683      -0.00102570      -0.00085345
Al       9.84019829      15.67712737       2.00489316      -2.22743077      -0.00054184       0.00077361       0.00035158
Al       9.78283863      17.63654491       0.02852946      -2.52288217      -0.00109411      -0.00034088       0.00015327
Al       7.83245551      15.68885352       3.92038126      -2.33934631       0.00186434      -0.00016867       0.00064852
Au       7.74493611      17.72727341       5.73047580       0.09292239       0.00065851      -0.00033845       0.00016228
Al       9.81636522      15.72980780       5.78254853      -2.15644069       0.00097246      -0.00045075       0.00033848
Cu       9.79285845      17.77278843       3.81110211       3.10477410       0.00010827       0.00019742       0.00205059
Au       7.77471439      15.67343852       7.78149018       1.07298402       0.00105881      -0.00005924       0.00189809
Au       7.72872428      17.47554030       9.93399436       0.23982683      -0.00033216      -0.00002560      -0.00165586
Al       9.83302175      15.61919007       9.85459628      -1.94517932      -0.00048369      -0.00037908       0.00019536
Al       9.79646372      17.55725608       7.83260230      -1.54416533       0.00077632      -0.00101521       0.00079057
Cu       7.72201371      15.61999009      11.83831798       2.94734509      -0.00282368      -0.00010892       0.00121596
Au       7.79965590      17.54875347      13.62570382      -0.22760996      -0.00306686      -0.00018991      -0.00024000
Cu       9.67757352      15.61289412      13.75512655       3.06313061       0.00002077       0.00099550      -0.00130285
Al       9.85784552      17.54250455      11.82245228      -2.05505502      -0.00087335       0.00014212      -0.00019231
Cu      11.71636603       0.12107922       0.04413044       2.53643948      -0.00073452      -0.00057970       0.00001427
Cu      11.77389560       1.90390847       1.91469255       2.32978239      -0.00100197      -0.00026464       0.00093559