399
Lattice="19.59262691714357 -0.0029401591670048664 0.00043227724696582155 -0.0029405439160256983 19.594541571232078 0.002722427805357169 0.0003459403246241731 0.002177382872289726 15.670877927394494" Properties=species:S:1:pos:R:3:energies:R:1:forces:R:3 energy=12.202425319639577 free_energy=12.202425319639577 stress="0.000567619289986633 0.0001908560430013922 -0.00022013027509063828 0.0001908560430013922 -5.1817243277885076e-05 -0.00015402579418363361 -0.00022013027509063828 -0.00015402579418363361 0.0008746850959396881" pbc="T T T"
Au      -0.01535948       0.03630456       0.05195521      -1.22163425      -0.00032187       0.00039447       0.00034494
Cu      -0.07990893       1.88771002       1.89633373       2.70803109      -0.00175228       0.00019810      -0.00051940
Cu       2.03392215      -0.04853456       1.94955865       3.19356351       0.00059201       0.00060065      -0.00023985
Al       1.95800320       1.93326986       0.11566670      -3.31900873      -0.00035628       0.00028339      -0.00062381
Al      -0.07002310      -0.03585301       3.86414261      -2.45887902      -0.00028902      -0.00019620      -0.00029161
Al      -0.07476964       1.96398928       5.79921673      -1.87884214       0.00070596       0.00016555      -0.00048139
Al       1.89805023      -0.04612172       5.85581360      -2.20998660      -0.00069658      -0.00127914       0.00034127
Al       1.90130648       1.87220967       3.80240671      -2.80375319      -0.00056485       0.00102604       0.00050706
Al      -0.06982222      -0.03073445       7.76550100      -2.50322827       0.00185857      -0.00080461      -0.00030449
Au      -0.00093748       1.94054951       9.75675724      -0.04164438       0.00097084       0.00287362      -0.00027363
Cu       1.87272582      -0.07263979       9.80604565       2.26009221      -0.00042828      -0.00043188      -0.00183425
Au       1.94787955       1.90733213       7.86704120      -0.60924489      -0.00147931       0.00156796       0.00145901
Cu       0.02949296      -0.10705831      11.73842208       2.00945070       0.00060082       0.00010041      -0.00002254
Cu       0.00428497       1.89516497      13.78451071       2.56778872       0.00122555      -0.00052680      -0.00046426
Au       1.87586310      -0.03541349      13.66526693      -0.28677467       0.00153381       0.00001943       0.00046209
Au       1.89287475       1.88413277      11.69482667      -0.89234877      -0.00075305       0.00011896       0.00141733
Cu       0.02675485       3.84184620       0.09856827       2.23329250      -0.00054096       0.00029826      -0.00133002
Cu      -0.08856658       5.78789511       1.86001607       2.76136419      -0.00103186       0.00053694      -0.00060444
Cu       1.88469905       3.83485626       1.94130827       2.85546433      -0.00139698       0.00096257      -0.00092224
Au       1.93589691       5.77892557       0.08275962      -0.34674608      -0.00133207       0.00026653      -0.00044423
Al      -0.05108369       3.85884407       3.80018538      -2.52298083      -0.00063110       0.00004079       0.00052529
Au       0.00504083       5.76640636       5.91106119       0.13440500      -0.00224543      -0.00031550      -0.00005549
Au       2.02119065       3.78209692       5.80483925       0.32764733       0.00009733       0.00000925       0.00135876
Al       1.91002440       5.76948976       3.82051723      -2.29785460      -0.00201070       0.00021472      -0.00027982
Cu       0.11069119       3.87646032       7.81575535       3.31940676       0.00047520      -0.00077457       0.00054325
Au       0.05467744       5.83384467       9.71053630       0.58421960      -0.00033172      -0.00015823      -0.00028624
Cu       1.95836006       3.83909030       9.79644595       2.85961612       0.00002437       0.00081823       0.00061678
Al       1.98035052       5.86183484       7.82145309      -3.22198293      -0.00148933       0.00008027      -0.00038711
Au       0.00929864       3.91504973      11.77871766       0.30727506       0.00039886      -0.00024213      -0.00129902
Au      -0.03101503       5.85244089      13.84901618       0.38964643      -0.00041116       0.00058483       0.00032907
Au       1.91850701       3.84081774      13.78922352       0.18143699      -0.00132830       0.00089317      -0.00159581
Al       1.98298384       5.86811190      11.81850570      -2.76002474       0.00012270       0.00050165       0.00000685
Al       0.01050469       7.82832516       0.06970517      -2.95533588      -0.00082789       0.00061156       0.00038908
Au       0.04597579       9.79586966       2.05775616      -0.06161191      -0.00144912      -0.00072646      -0.00037259
Al       1.94224249       7.83534229       1.94790840      -2.39808095      -0.00004240       0.00030436       0.00002800
Cu       1.97797370       9.84999623       0.01953819       3.02106576       0.00055325      -0.00087767      -0.00009422
Al       0.05706443       7.76666587       3.95124865      -2.59377265      -0.00132554      -0.00030180       0.00043400
Al       0.05243453       9.75335244       5.92528657      -2.70860652       0.00003791       0.00025956       0.00061630
Cu       1.95716812       7.80571927       5.92502926       3.15847620      -0.00056881       0.00035221      -0.00034168
Cu       1.92919711       9.90577518       3.93623513       3.07364461      -0.00061076       0.00003641       0.00025361
Cu      -0.00193660       7.73114760       7.76443357       3.57803073      -0.00105736       0.00036875       0.00008303
Al       0.01442587       9.79407331       9.70936466      -2.23391852      -0.00012956      -0.00022336       0.00100149
Al       2.01585570       7.90161589       9.78728414      -2.21464204       0.00024652       0.00001300       0.00117903
Al       1.99262616       9.77887557       7.88501672      -2.13455656      -0.00056101       0.00094387       0.00020466
Al       0.08998368       7.85291979      11.74412632      -2.15783049       0.00024673      -0.00083967       0.00102075
Au       0.17144260       9.79611550      13.68998880       0.01599855       0.00084440       0.00004725      -0.00053024
Cu       1.96509172       7.81454267      13.78960641       3.06779762       0.00085820      -0.00120872      -0.00034235
Cu       2.02379659       9.91971757      11.73128073       2.94408568       0.00031856      -0.00094412       0.00049469
Al       0.10186442      11.86853336      -0.03166335      -3.02938910       0.00107605      -0.00028106      -0.00149910
Cu       0.08602765      13.79379014       2.02474729       2.85757206      -0.00028983      -0.00039914      -0.00071813
Au       1.88861813      11.81201871       1.99766972      -1.08629983       0.00094730      -0.00099295       0.00151856
Cu       1.99581561      13.83727687      -0.05937767       2.21257785       0.00032766      -0.00087883      -0.00120059
Cu       0.01807336      11.81142322       3.98239424       2.75532677       0.00069562       0.00047439      -0.00074153
Au       0.03046707      13.82624569       6.07611299      -1.61314121       0.00017386      -0.00082624      -0.00241714
Au       1.86547062      11.80561568       5.94592754       0.05894026       0.00024295       0.00067145      -0.00034293
Au       1.86222084      13.81857778       3.96566389      -0.39156333       0.00049578       0.00023057       0.00226873
Cu       0.04052690      11.90092392       7.89079405       3.25398924      -0.00122934      -0.00044336       0.00026916
Au       0.01854349      13.80639140       9.69586349      -2.02439745      -0.00200642      -0.00172452       0.00025664
Au       2.02884366      11.83748207       9.80983963      -1.43138344      -0.00278628      -0.00142279      -0.00320151
Cu       1.92075786      13.80808878       7.91756740       2.59948586       0.00128239      -0.00378686       0.00123534
Au       0.02607006      11.80697317      11.65538715      -0.46639763       0.00000875      -0.00149768       0.00138396
Au       0.05930306      13.84554930      13.56393769      -0.78030199      -0.00283664      -0.00086618      -0.00052267
Au       2.02267033      11.88823340      13.61053797      -1.28978159      -0.00051743       0.00082699       0.00077712
Cu       2.06133119      13.74930295      11.71875451       1.88408230      -0.00083863      -0.00003313       0.00012333
Au       0.07301180      15.60527970      -0.01454937      -0.52410090      -0.00013611      -0.00133966       0.00030494
Al      -0.00849574      17.67932719       1.98164614      -2.49660971       0.00112338       0.00024248       0.00076801
Cu       1.90587101      15.66321523       1.91644938       2.70856351      -0.00149175      -0.00082830       0.00037252
Au       1.96847016      17.56969398       0.04628269      -1.24555047       0.00113103      -0.00112814       0.00037529
Au       0.00722723      15.79351883       3.97199906      -0.30510665       0.00216018       0.00214986       0.00028432
Cu      -0.08453232      17.58684488       5.90146497       2.86749930       0.00191181      -0.00024212      -0.00017375
Cu       1.85806346      15.78866273       6.01403859       2.59045289      -0.00111102      -0.00082626      -0.00393396
Al       1.96449645      17.64908877       3.92640161      -2.62449196       0.00108797      -0.00043345       0.00147779
Cu       0.01674741      15.72596188       7.92359396       2.12023793      -0.00149379      -0.00141889       0.00062776
Cu      -0.00840415      17.63359234       9.82701592       2.10533882      -0.00255397      -0.00018519       0.00033309
Au       1.83793461      17.60776361       7.92682250      -1.65305703      -0.00425656       0.00850593      -0.00167943
Al       0.14814556      15.70843647      11.57497248      -3.80711200      -0.00250601       0.00133304       0.00248449
Au       0.02081898      17.55689760      13.61184033      -1.41761552       0.00083449      -0.00250074       0.00179176
Cu       2.00942512      15.64747668      13.67619528       1.97005159      -0.00037357      -0.00104279      -0.00084309
Cu       1.93025405      17.66600315      11.65972677       1.87878254      -0.00009758       0.00091498      -0.00069902
Au       3.86544022      -0.05149677       0.07124629       0.12183113      -0.00101649       0.00070945      -0.00023374
Cu       3.90007521       1.92327451       2.07201400       2.56742423       0.00179762       0.00107674      -0.00107178
Al       5.79293564      -0.04370588       2.00690577      -3.47992696      -0.00028985       0.00181105       0.00051179
Al       5.79161381       1.94247979       0.03861840      -2.29565598      -0.00047662       0.00049369       0.00065238
Au       3.92051101      -0.04842017       3.93223005      -1.39941102       0.00084609       0.00086664       0.00074546
Cu       3.93050305       1.84840216       5.84926142       2.67194949       0.00098524       0.00139839      -0.00094433
Cu       5.78693547      -0.03530982       5.80926852       1.89976591       0.00019813       0.00108552      -0.00031645
Cu       5.79982631       1.86946583       3.96537129       1.74782721       0.00164513      -0.00072371      -0.00026919
Au       3.84097692      -0.05412732       7.88314141      -0.99288250       0.00191498       0.00155840       0.00213051
Cu       3.82269667       1.93548618       9.79412318       2.86787020       0.00046133       0.00127259      -0.00004755
Al       5.82545577      -0.00299649       9.84570537      -2.95550235       0.00039264      -0.00049731      -0.00132335
Au       5.86028184       1.83876965       7.76286616      -0.30541240      -0.00021821       0.00023107       0.00065963
Al       3.87561252      -0.03891843      11.65348371      -3.31408463      -0.00074158      -0.00131601       0.00115810
Al       3.92098840       1.91221765      13.70804045      -2.31093537      -0.00132086       0.00008133      -0.00167366
Au       5.81459174      -0.09774206      13.63976804       0.27409035      -0.00275030      -0.00068586      -0.00220464
Cu       5.86979338       1.96057179      11.77810608       3.13183389      -0.00052848       0.00000040       0.00108344
Al       3.94083460       3.85306159       0.08058307      -2.53450264      -0.00186144       0.00097648      -0.00022461
Al       3.91564005       5.77624975       2.01918566      -2.26159029      -0.00086943      -0.00073518       0.00055458
Cu       5.78037895       3.73119158       2.12712923       2.95372132       0.00017837       0.00031884      -0.00050733
Au       5.78942158       5.90368309      -0.05045478      -0.20963873       0.00030860      -0.00222300       0.00080516
Cu       3.88445118       3.71673920       3.87498789       2.40245924       0.00107631      -0.00005180       0.00006135
Au       3.83045854       5.89964935       5.82591455       0.52759735      -0.00091248       0.00144945       0.00090900
Al       5.77279511       3.86098653       5.82449736      -3.01109986       0.00073864       0.00045196       0.00035224
Al       5.80999822       5.87394677       3.90504936      -2.35779835      -0.00040750       0.00007527      -0.00012047
Au       3.89165216       3.81000721       7.86787630       0.12307305       0.00066614       0.00199837      -0.00020872
Au       3.87344474       5.86266004       9.79714372       0.99556177       0.00032604       0.00029625      -0.00017585
Al       5.87253836       3.81361312       9.80137229      -2.36421327       0.00051229       0.00212094       0.00016236
Al       5.83909147       5.87986222       7.84098332      -2.05474985      -0.00004135       0.00033402       0.00039978
Au       3.91226345       3.83331739      11.75907843      -0.29473901      -0.00087622       0.00211924      -0.00021005
Cu       3.87058954       5.88286264      13.77204985       2.76302825       0.00120066       0.00038919       0.00037706
Cu       5.79684531       3.95369636      13.68198879       3.27267631       0.00060411       0.00028688       0.00037211
Al       5.79637924       5.90259843      11.79270120      -2.60826397       0.00206450      -0.00014041       0.00035659
Au       3.83537117       7.87569248      -0.05770712      -0.77501893       0.00028129      -0.00129403       0.00131752
Cu       3.81343910       9.86866431       1.92045805       2.79903920       0.00078974      -0.00066627       0.00068534
Au       5.80410530       7.90372405       1.96766892       0.53774418       0.00004979      -0.00047335       0.00049691
Au       5.82040702       9.82881201      -0.01025531      -0.32229836       0.00080261      -0.00085898       0.00107908
Au       3.75659429       7.96844088       3.92199216       0.48531990      -0.00022383      -0.00077206       0.00027914
Al       3.84131981       9.83682919       5.93646392      -2.31476947       0.00044310       0.00057671       0.00050390
Au       5.81504245       7.87401539       5.87740029       0.91884309      -0.00012607      -0.00030738      -0.00025763
Al       5.86426773       9.83459959       3.91451207      -2.71745986      -0.00018707       0.00056751       0.00068174
Cu       3.90691564       7.82295073       7.81742848       3.45267496      -0.00044348      -0.00076947       0.00054537
Cu       3.90863893       9.90283828       9.97849863       2.44333722       0.00101517      -0.00108250       0.00143727
Au       5.72611768       7.98373782       9.82437501      -0.03564499       0.00070719      -0.00071691       0.00003773
Al       5.77785401       9.87510911       7.90874768      -2.53975093       0.00032579      -0.00040249       0.00002825
Au       3.86581242       7.91647984      11.88375727      -0.67500346      -0.00008976      -0.00043162       0.00009287
Al       3.87143362       9.88058395      13.68239249      -3.72952765       0.00073284      -0.00076504      -0.00171912
Cu       5.84803836       7.87952113      13.74016725       2.72390852       0.00065920      -0.00092979       0.00051307
Cu       5.79863986       9.87403375      11.74922256       2.19710451       0.00004080      -0.00127223       0.00087384
Au       3.80654114      11.84657337       0.01871323      -0.61998830       0.00009387      -0.00066093      -0.00235759
Al       3.85303801      13.85786220       1.98934336      -3.27067344       0.00059386      -0.00308347       0.00050637
Au       5.84261881      11.78177745       1.96825669       0.49558537      -0.00044794      -0.00031197       0.00017194
Au       5.76821852      13.84580995       0.00401767      -0.29503740       0.00079612      -0.00042211      -0.00017822
Au       3.84533844      11.76369626       3.93158557       0.35513836       0.00035692       0.00043013      -0.00031698
Al       3.81549310      13.80544770       5.93788825      -2.22632079       0.00145522      -0.00005737      -0.00130731
Au       5.93021148      11.84191977       5.86835253       0.74977918      -0.00002978       0.00001743       0.00068082
Au       5.90671292      13.76017719       3.91381465       0.71988838      -0.00013780       0.00085288       0.00066977
Al       3.90997329      11.84284101       7.90896148      -2.24024853       0.00070461      -0.00024996      -0.00016893
Cu       3.81026718      13.81189445       9.85944877       2.06318405       0.00250559      -0.00063972      -0.00130175
Cu       5.74802057      11.75276906       9.94255948       2.36622430       0.00082609      -0.00128941      -0.00038026
Al       5.78575841      13.77155513       7.96244949      -2.39982554      -0.00125418      -0.00078990       0.00123392
Cu       3.89301953      11.86178637      11.69504137       1.83070033       0.00143035      -0.00088525       0.00192022
Cu       3.80035944      13.81700737      13.66919362       1.93817624      -0.00190451       0.00054872      -0.00069767
Au       5.76688083      11.91851283      13.65231423      -0.57507969      -0.00005085       0.00018856      -0.00041601
Au       5.67652996      13.82575913      11.67507218      -1.71879701       0.00281721       0.00064289       0.00136629
Cu       3.79470308      15.68595536       0.00085690       2.12510578      -0.00007324       0.00089095      -0.00078267
Cu       3.86305555      17.54922839       1.94000400       2.43152419       0.00013303       0.00137695       0.00015626
Cu       5.82695327      15.78414114       1.98825258       2.88922535      -0.00034910      -0.00074633       0.00042022
Au       5.77215369      17.51665590       0.03987864      -0.56074744      -0.00058219      -0.00007286      -0.00001455
Al       3.86117470      15.77951443       3.95924730      -2.68395564       0.00048533       0.00082406       0.00077603
Cu       3.88211972      17.65540424       5.97269822       2.89004252      -0.00177243      -0.00014254      -0.00207820
Al       5.79416268      15.69110045       5.87948035      -2.30191287      -0.00054988      -0.00140999      -0.00052464
Cu       5.78112354      17.68246885       3.92938800       2.62046002       0.00019656       0.00033688      -0.00006368
Au       3.74589923      15.70321932       7.98114104      -1.18624314       0.00536205      -0.00725166      -0.00271258
Cu       3.79593556      17.57612156       9.83439229       2.03970483       0.00328182       0.00399225       0.00375192
Cu       5.68958025      15.75834119       9.87512686       2.30681576       0.00061546      -0.00137163      -0.00117330
Au       5.76680026      17.60377337       7.87664688      -0.30722163       0.00294955       0.00382034       0.00205157
Cu       3.73323962      15.71249324      11.64339174       1.20468547       0.00062862       0.00010469       0.00197189
Au       3.80542734      17.52856711      13.59573897      -1.14510181       0.00111438      -0.00151183       0.00006512
Al       5.75904233      15.64033225      13.65454403      -3.78764504       0.00042002      -0.00144931      -0.00055757
Cu       5.77157143      17.51010341      11.71481175       2.50481154      -0.00114390       0.00096597       0.00114170
Au       7.81728906      -0.04145966       0.00484095       0.16784070      -0.00068590       0.00012370      -0.00047922
Au       7.75631115       1.86966718       1.99845689      -0.43844362       0.00049166       0.00094878      -0.00019256
Cu       9.76691706       0.04229968       1.94313190       2.33413237       0.00008264      -0.00048701      -0.00060212
Cu       9.78342522       1.85364620       0.06277537       2.57267473      -0.00110757      -0.00104185      -0.00090201
Cu       7.73586551       0.01964628       3.93404410       2.22082160      -0.00041025       0.00062764      -0.00041659
Cu       7.74388331       1.86326242       5.78583297       2.50339648      -0.00010838       0.00032685      -0.00062774
Al       9.77821501      -0.05427152       5.82393607      -2.56340766       0.00050464       0.00063330      -0.00003378
Au       9.75789597       1.86327066       3.85536474      -0.65047568       0.00077660      -0.00010277      -0.00080817
Al       7.81107183      -0.07185746       7.85370050      -2.28735702      -0.00028918      -0.00096513       0.00073092
Cu       7.83598656       1.94210075       9.79359537       3.44583100       0.00017439       0.00095885      -0.00012539
Al       9.79991093      -0.04904937       9.82403781      -1.75107577       0.00091393       0.00028923      -0.00020070
Au       9.76104644       1.92427891       7.79563289       0.76617795       0.00085625       0.00104590       0.00023963
Au       7.80047966       0.04148532      11.72466805       0.06681272       0.00089921       0.00029801       0.00145948
Au       7.74677126       1.99343788      13.73456613       0.02028216      -0.00118260      -0.00059252      -0.00035089
Au       9.84624109       0.04067083      13.76470944       0.10228754      -0.00019770       0.00106141      -0.00064091
Au       9.84093272       2.03133333      11.77031409       0.73458238       0.00117552       0.00097931      -0.00043190
Al       7.71639121       3.91536944       0.07841980      -2.36103589       0.00025764      -0.00087288      -0.00059889
Al       7.74763085       5.92243191       1.98383050      -2.50501248       0.00027440       0.00021628      -0.00024392
Al       9.75248497       3.89486768       1.91429875      -2.25195585       0.00058772      -0.00094885      -0.00025777
Au       9.75526115       6.07063398       0.07159710       0.64559775      -0.00081800       0.00017669       0.00034647
Au       7.73205769       3.83114261       3.92549144       0.02123552      -0.00015057       0.00060585      -0.00072992
Au       7.84122236       5.96799891       5.85270192       0.33391181       0.00026849      -0.00008574       0.00073553
Au       9.79596211       3.90419317       5.80426904      -0.28006278      -0.00034647      -0.00073542       0.00059757
Au       9.78493587       5.96080080       3.89948783      -0.48806290       0.00030915      -0.00058493       0.00133149
Au       7.80527026       3.83996897       7.77296118       0.73455611       0.00037989       0.00112105       0.00021083
Al       7.80654373       5.89588264       9.77789982      -1.29985622       0.00067388      -0.00018448       0.00068374
Al       9.81848772       3.92954601       9.75554363      -2.24795208      -0.00051601      -0.00061523       0.00024525
Au       9.87834087       5.95114745       7.73956429       0.63005806       0.00079231      -0.00027991       0.00126545
Al       7.77470067       3.91496552      11.74966354      -2.34740811       0.00011516      -0.00025473      -0.00072215
Au       7.76736842       5.93583932      13.73901568       0.18789217      -0.00014265      -0.00024996       0.00058062
Au       9.78722890       3.91775769      13.84826096       0.52939751      -0.00041692       0.00000900      -0.00092766
Au       9.82742961       5.83676086      11.77848911       1.36297820       0.00024732      -0.00063703      -0.00050440
Cu       7.72174913       7.87654445      -0.01919490       2.96919960      -0.00029387      -0.00045731       0.00065349
Al       7.84221237       9.83163032       1.99814592      -3.22921706       0.00131927      -0.00007662       0.00025004
Cu       9.78485648       7.88352389       1.99616799       2.93628696       0.00094476       0.00030323      -0.00017649
Au       9.73006850       9.75757133       0.04615447      -0.83532114       0.00090858       0.00078531       0.00038611
Cu       7.88299690       7.86687374       3.95681731       3.09047082       0.00020014       0.00017184      -0.00022571
Au       7.84961546       9.78217913       5.85051210       0.40272854      -0.00020593       0.00061325      -0.00127433
Cu       9.83723101       7.84671495       5.80040650       2.99084295       0.00099272      -0.00036027       0.00004928
Au       9.79324451       9.78153853       3.91648327      -0.87173669       0.00039138       0.00053086      -0.00051980
Al       7.81598245       7.92684183       7.91742336      -1.88174825       0.00074520      -0.00049095       0.00041173
Cu       7.72437525       9.92569960       9.91427653       3.03292391       0.00020038      -0.00050288       0.00007074
Al       9.86275535       7.88624554       9.80998679      -1.76953627       0.00049079      -0.00034105      -0.00008874
Al       9.84557053       9.75716965       7.84828000      -2.20712880      -0.00001760       0.00006318      -0.00148061
Au       7.74183342       7.94021057      11.71599305       0.14326069       0.00125162      -0.00033000      -0.00052724
Au       7.74205848       9.83812528      13.69502681      -0.55501384       0.00103058      -0.00161344       0.00088482
Al       9.78921602       7.88489548      13.68817609      -2.63602105       0.00008415      -0.00018459       0.00033871
Au       9.81638962       9.90599604      11.73251357       0.53566775       0.00072556       0.00016457      -0.00027928
Au       7.86309743      11.86538736      -0.04669875      -0.82880819       0.00032364       0.00045077      -0.00016719
Al       7.86032702      13.72798061       1.96486804      -2.87383306      -0.00019798      -0.00083141       0.00058738
Cu       9.82837837      11.78490319       1.99290374       2.66741798      -0.00021668       0.00041787      -0.00004710
Cu       9.75917919      13.68863788      -0.05497353       2.60197583      -0.00015520       0.00075009      -0.00141365
Cu       7.86807293      11.81952503       3.95277146       3.05519604      -0.00033784       0.00021242       0.00030816
Cu       7.85855913      13.67497891       5.89082210       3.30467676      -0.00000702       0.00096634       0.00051189
Al       9.80588915      11.74306807       5.91790983      -2.72122196       0.00012489       0.00066741      -0.00058681
Au       9.81785670      13.66138848       3.91286447      -0.02987946      -0.00079829       0.00088367      -0.00057221
Au       7.76839477      11.77849292       7.95066788       0.48518975       0.00024940      -0.00087324       0.00005915
Al       7.74741436      13.80322868       9.85732095      -2.32421661       0.00052194      -0.00160531      -0.00021127
Au       9.85780842      11.79868497       9.76951927       0.50695848       0.00011699       0.00004406       0.00083613
Au       9.83138829      13.78416601       7.82793832       0.47418173       0.00021378       0.00035293       0.00012713
Al       7.77657391      11.86194737      11.78093722      -3.06480046       0.00063720      -0.00121005       0.00024599
Cu       7.83157577      13.77406655      13.75852179       2.51282978      -0.00166771      -0.00042602      -0.00068221
Cu       9.75884351      11.74434078      13.79110102       3.06257521      -0.00055001      -0.00029375       0.00007227
Al       9.77309237      13.73147916      11.82178475      -2.04217222      -0.00059782       0.00039531       0.00196908
Au       7.85870626      15.63948911       0.01441004      -0.20401402      -0.00091499       0.00133294       0.00008591
Au       7.79829997      17.67908972       2.08817199      -0.54313961      -0.00074716       0.00069196       0.00013418
Al       9.83623148      15.68067337       2.01139271      -2.23189622      -0.00063095       0.00012829      -0.00163189
Al       9.77757342      17.63709570       0.02875217      -2.52026120       0.00018519      -0.00068141      -0.00185303
Al       7.82089852      15.69017227       3.93450054      -2.34999681      -0.00095410       0.00013865       0.00026754
Au       7.72986269      17.71729846       5.74544070       0.10095191      -0.00171375       0.00083339       0.00052611
Al       9.81532971      15.73013007       5.78257601      -2.15835754      -0.00129377      -0.00000552       0.00148488
Cu       9.78748784      17.77193808       3.81479014       3.10128040      -0.00046745      -0.00039237       0.00028377
Au       7.77326833      15.66932906       7.78315589       1.06910384       0.00053650      -0.00036403       0.00083160
Au       7.73166298      17.46838356       9.93278392       0.24860979      -0.00245977       0.00286570      -0.00038455
Al       9.83305707      15.61639148       9.85622855      -1.95321761       0.00115293       0.00024147       0.00152931
Al       9.79567860      17.55409111       7.83410091      -1.54734398      -0.00187427       0.00120035       0.00044704
Cu       7.72447961      15.61102128      11.83798296       2.94642000      -0.00138488      -0.00066665      -0.00253027
Au       7.79219308      17.54643951      13.62374036      -0.22562193      -0.00005262       0.00107411       0.00036869
Cu       9.67705161      15.61313603      13.75433386       3.06407060      -0.00207532      -0.00004245      -0.00094300
Al       9.85433116      17.54336937      11.82471810      -2.05601870       0.00027716       0.00021787      -0.00011404
Cu      11.71684246       0.12155685       0.04098555       2.53652935       0.00021373      -0.00142074      -0.00094785
Cu      11.77287541       1.90014418       1.91524249       2.32615705       0.00068330      -0.00214938       0.00012699