399
Lattice="19.59262691714357 -0.0029401591670048664 0.00043227724696582155 -0.0029405439160256983 19.594541571232078 0.002722427805357169 0.0003459403246241731 0.002177382872289726 15.670877927394494" Properties=species:S:1:pos:R:3:energies:R:1:forces:R:3 energy=11.911409815556063 free_energy=11.911409815556063 stress="0.0005101152144278619 -3.651210715068847e-05 -2.004697342969219e-05 -3.651210715068847e-05 0.00039433766720728056 -0.00018180984673559639 -2.004697342969219e-05 -0.00018180984673559639 0.0007554129259887318" pbc="T T T"
Au      -0.01129806       0.04112010       0.06536194      -1.21910486       0.00129683      -0.00167547      -0.00089020
Cu      -0.07856280       1.89964121       1.89805371       2.71996805      -0.00083291       0.00039792       0.00138003
Cu       2.03863983      -0.03940139       1.95778666       3.20131091      -0.00092567       0.00016416       0.00027020
Al       1.96373161       1.93664007       0.11995047      -3.31179591      -0.00146613       0.00191444       0.00192609
Al      -0.06405820      -0.01752655       3.85917705      -2.46720418       0.00066301       0.00035650       0.00178659
Al      -0.06154812       1.99136457       5.79748601      -1.87369207       0.00106526       0.00113816       0.00015595
Al       1.91005137      -0.00312393       5.82848962      -2.17759290       0.00095325       0.00045590      -0.00057982
Al       1.91255394       1.90490675       3.79617189      -2.80433726       0.00026086      -0.00006579       0.00068527
Al      -0.06374867      -0.01803167       7.74949790      -2.47411570      -0.00011215       0.00047946      -0.00135110
Au       0.01333357       1.93021988       9.75199062      -0.02133859       0.00097082       0.00115345       0.00163929
Cu       1.88100626      -0.10802616       9.79912713       2.19006995       0.00151750       0.00124823      -0.00018470
Au       1.96643729       1.92162897       7.86495040      -0.60778582       0.00335841      -0.00036712      -0.00167536
Cu       0.03886753      -0.11888292      11.74275912       2.00404162       0.00265460      -0.00201983      -0.00065627
Cu       0.00900336       1.88667696      13.78366777       2.56191786       0.00060186      -0.00020041       0.00015739
Au       1.88206109      -0.03891037      13.67322614      -0.28285845       0.00152997      -0.00208391       0.00144515
Au       1.90404904       1.86961312      11.68677677      -0.86648232      -0.00037132       0.00304433       0.00135980
Cu       0.02675675       3.83855176       0.09478851       2.23268317      -0.00099027       0.00139178      -0.00073415
Cu      -0.08860657       5.78643022       1.85657696       2.75960827      -0.00022360      -0.00036175       0.00002518
Cu       1.88562891       3.84974480       1.93844278       2.87405244      -0.00007340       0.00220488      -0.00077767
Au       1.93561018       5.77551350       0.07709285      -0.36614640       0.00192933       0.00168560       0.00168797
Al      -0.04683859       3.87129735       3.80029834      -2.51722650      -0.00254261       0.00079746       0.00063810
Au      -0.00175236       5.76254589       5.91384929       0.13033196      -0.00076965      -0.00011374       0.00095602
Au       2.05104738       3.81587085       5.80861025       0.32710433      -0.00164922      -0.00313240       0.00121805
Al       1.91987699       5.77638701       3.83124630      -2.29725736       0.00040187      -0.00116214       0.00048493
Cu       0.12011942       3.87614448       7.82045951       3.32803870      -0.00181144      -0.00012071      -0.00194099
Au       0.05265660       5.82673916       9.71446852       0.58537299      -0.00123963       0.00130706       0.00071030
Cu       1.96735415       3.84008782       9.79505890       2.85632065       0.00017135       0.00087721       0.00114913
Al       1.97547616       5.86860605       7.82306706      -3.23280914      -0.00079302       0.00047585       0.00389888
Au       0.01465119       3.90069979      11.77612046       0.30579002       0.00066301      -0.00115134      -0.00190531
Au      -0.03206473       5.84316233      13.84648690       0.38118206      -0.00223408       0.00030986      -0.00147499
Au       1.92090229       3.83236977      13.78389169       0.17932087      -0.00182258      -0.00090010       0.00092885
Al       1.97899472       5.86221674      11.81654287      -2.76833536       0.00026741       0.00132439      -0.00247486
Al       0.00795389       7.82427142       0.06556526      -2.95877848      -0.00036513       0.00044895       0.00118699
Au       0.04335349       9.78762531       2.05996037      -0.04928181       0.00194984       0.00154573       0.00153197
Al       1.93857575       7.82699161       1.94391903      -2.40759697      -0.00321895       0.00002355      -0.00504455
Cu       1.97775392       9.84505851       0.02164569       3.03263204       0.00016890      -0.00018853       0.00120080
Al       0.04630522       7.75679949       3.94573147      -2.61692339       0.00053761       0.00083655       0.00112117
Al       0.03619318       9.75046557       5.93122277      -2.73744589       0.00046569      -0.00062481      -0.00285664
Cu       1.92389892       7.80934427       5.92470683       3.20682706       0.00233202       0.00047644      -0.00249603
Cu       1.92309363       9.87926884       3.95465077       3.07748647      -0.00032130       0.00062694      -0.00051587
Cu      -0.01091792       7.72946312       7.77239005       3.57869453       0.00047932       0.00147306       0.00013781
Al       0.00815382       9.80311803       9.71554252      -2.24070503       0.00093576      -0.00095978      -0.00466449
Al       1.99142281       7.90306878       9.80664685      -2.23594377       0.00193523       0.00152129      -0.00129681
Al       1.98449623       9.77809555       7.88892304      -2.16016340      -0.00232999      -0.00190430       0.00554314
Al       0.08447703       7.85335479      11.75115765      -2.15670076      -0.00219903      -0.00074700       0.00047741
Au       0.17570610       9.80164787      13.69187146       0.00855046      -0.00109508       0.00240178       0.00118460
Cu       1.95496463       7.81036831      13.78730074       3.09998689      -0.00114297      -0.00057575      -0.00124221
Cu       2.01980931       9.93377519      11.72636596       2.95401404       0.00138346      -0.00177269      -0.00087226
Al       0.11078815      11.86122262      -0.01998040      -3.03636982      -0.00166175      -0.00098960      -0.00088743
Cu       0.09738529      13.78149282       2.03318151       2.84149415       0.00030517      -0.00116740      -0.00061196
Au       1.89917802      11.78946547       2.01485016      -1.06764022       0.00121522      -0.00095327       0.00198793
Cu       2.00114902      13.83834328      -0.05329950       2.19404353       0.00060315      -0.00189716      -0.00129239
Cu       0.02008005      11.79883855       3.99083598       2.75170101       0.00035063       0.00018522      -0.00025156
Au       0.03499791      13.79853991       6.07605886      -1.61965785       0.00289088      -0.00308145       0.00097955
Au       1.88649349      11.77015624       5.95052046       0.06739427      -0.00638265       0.00506744      -0.00364875
Au       1.87523913      13.78978144       3.97564016      -0.39524522       0.00088659      -0.00289722      -0.00055137
Cu       0.03759360      11.88738415       7.88823823       3.25353677       0.00201914      -0.00164970      -0.00447328
Au      -0.04001051      13.78718852       9.69451203      -2.01841241      -0.00070250       0.00352752      -0.00026222
Au       2.02945363      11.86132525       9.81054289      -1.44750763       0.00530059      -0.00295354      -0.00366999
Cu       1.93577903      13.80693708       7.91469716       2.63952098      -0.00023823      -0.00079235      -0.00083697
Au       0.02110392      11.80676958      11.66289668      -0.46136739      -0.00339525       0.00033328       0.00459454
Au       0.04646589      13.82962716      13.59431791      -0.67267308       0.00075633       0.00067133      -0.00070194
Au       2.02846161      11.90152786      13.60585363      -1.27440438      -0.00436565      -0.00219030      -0.00001555
Cu       2.04837591      13.78402265      11.71810759       1.97559213      -0.00046798      -0.00052787       0.00121028
Au       0.07391825      15.60458338       0.00196443      -0.51805110       0.00135722       0.00006105       0.00035561
Al      -0.00171398      17.67799142       1.99401812      -2.48567476       0.00085742       0.00109376       0.00121090
Cu       1.91797471      15.65266309       1.92770507       2.68722287      -0.00126013      -0.00224361      -0.00017642
Au       1.97426340      17.56600520       0.06073723      -1.23059925       0.00045416       0.00129099      -0.00174329
Au       0.02342289      15.77592250       3.97131628      -0.33118878      -0.00321088       0.00043846       0.00055981
Cu      -0.08550955      17.59606367       5.87539098       2.87012525      -0.00185113      -0.00019816       0.00030834
Cu       1.86114463      15.75841731       5.99913771       2.62031668      -0.00064818      -0.00037225       0.00138350
Al       1.97394847      17.65212095       3.93516595      -2.64071173       0.00046110      -0.00064545       0.00057325
Cu       0.02567884      15.72356325       7.90763949       2.23023181       0.00043190       0.00025856       0.00013097
Cu       0.00946230      17.60030564       9.82591166       2.16500758       0.00103325      -0.00249519      -0.00192338
Au       1.94344624      15.70920882       9.83967629      -2.44520441       0.00425108       0.00022036      -0.00491569
Au       1.85721864      17.64144159       7.83944145      -1.57897165       0.00067751      -0.00425731      -0.00000619
Al      -0.05772002      15.70266313      11.67451138      -4.10470905       0.00057737       0.00067006       0.00155672
Au       0.00236355      17.57515929      13.65180391      -1.36115884       0.00430908       0.00251846      -0.00076163
Cu       1.99308773      15.65303990      13.66231824       1.88334209       0.00157240       0.00011187      -0.00062034
Cu       1.91410299      17.62298605      11.69301181       2.00463652       0.00278880       0.00059199      -0.00114625
Au       3.86894272      -0.04743460       0.08071665       0.12536421       0.00084581      -0.00099378      -0.00013564
Cu       3.91249120       1.94796357       2.07314021       2.58396029       0.00097910       0.00040799       0.00047668
Al       5.80316307      -0.03029248       2.00686717      -3.47264647       0.00044054       0.00017148      -0.00042175
Al       5.79114601       1.95159859       0.04258919      -2.29007655       0.00063721       0.00207861       0.00186250
Au       3.93042578      -0.02464003       3.92024658      -1.42701702      -0.00133868       0.00114171       0.00033555
Cu       3.94650703       1.87321895       5.84091463       2.67824657       0.00068892      -0.00026758       0.00132367
Cu       5.80792097      -0.00664085       5.79182247       1.88628155       0.00081733      -0.00015882      -0.00057618
Cu       5.80741834       1.89874556       3.95912897       1.74623905       0.00123413      -0.00007705      -0.00015748
Au       3.86309968      -0.03161033       7.86474917      -0.97461506       0.00029870       0.00186149      -0.00068433
Cu       3.83715437       1.94198896       9.78921157       2.84563407      -0.00035155       0.00052606       0.00054268
Al       5.83215694       0.00561151       9.83756915      -2.95980112       0.00040713       0.00051551       0.00040968
Au       5.87299120       1.86484808       7.75622730      -0.32978361      -0.00004122      -0.00216288      -0.00048938
Al       3.87653338      -0.06164185      11.65103682      -3.28865477       0.00217901      -0.00042073       0.00080793
Al       3.92445702       1.90726770      13.70279427      -2.31566718      -0.00016515       0.00075184       0.00000794
Au       5.81772544      -0.09729976      13.64307938       0.28243771      -0.00437529      -0.00241659       0.00062585
Cu       5.86523615       1.96370620      11.76388260       3.10265873      -0.00027471       0.00128364      -0.00052707
Al       3.93976578       3.85559150       0.07806675      -2.54123096       0.00004174       0.00275795       0.00027292
Al       3.92800522       5.78062558       2.02304067      -2.29441768       0.00023513      -0.00045734      -0.00079228
Cu       5.78693552       3.77183877       2.13142800       2.93514292      -0.00048016      -0.00079838      -0.00194361
Au       5.78570450       5.89994196      -0.06627261      -0.21839220      -0.00218071      -0.00028426       0.00247644
Cu       3.89924132       3.74937928       3.87485566       2.40295854       0.00076681       0.00138179       0.00119016
Au       3.84685318       5.98498170       5.85353969       0.59682239       0.00271614       0.00356966      -0.00807029
Al       5.76368554       3.90109277       5.81755129      -2.96972624       0.00015005       0.00201218       0.00106204
Al       5.81714875       5.98912402       3.96367651      -2.04700115      -0.00376605       0.00096616       0.00496539
Au       3.90751882       3.84193032       7.86394505       0.14928276      -0.00209348      -0.00270402      -0.00274487
Au       3.87758283       5.87485003       9.79588575       0.95279858      -0.00102988       0.00131067       0.00324479
Al       5.87438649       3.84879574       9.78431423      -2.34953689       0.00371054      -0.00024261       0.00371732
Al       5.83183457       5.99188151       7.77777473      -1.79877949       0.00001352      -0.00070459       0.00105764
Au       3.91345020       3.83404074      11.75239638      -0.32195536      -0.00080388      -0.00010033      -0.00139872
Cu       3.86262259       5.87702930      13.76568864       2.79309931       0.00037900       0.00095192       0.00075401
Cu       5.79328521       3.94904291      13.67721885       3.29054948       0.00008194       0.00160462       0.00034499
Al       5.79179500       5.90710241      11.80289643      -2.62563520      -0.00034084      -0.00055989      -0.00240681
Au       3.82842099       7.87243818      -0.07191727      -0.79545274       0.00086519       0.00164715       0.00190522
Cu       3.81803660       9.84773545       1.92103176       2.82631227      -0.00150999      -0.00018666      -0.00320765
Au       5.80029025       7.90352867       1.93257419       0.55243498      -0.00075155       0.00006487      -0.00399492
Au       5.81719832       9.83122774      -0.02689708      -0.32231754      -0.00063075       0.00194017       0.00114726
Au       3.74677373       7.95700330       3.91214061       0.60304429       0.00037490      -0.00321463       0.00844726
Al       3.89784527       9.73223543       5.95475942      -2.03724702       0.00047299      -0.00309942      -0.00409375
Al       5.88060379       9.70898184       3.97741576      -2.39345193       0.00055300      -0.00292625       0.00373840
Cu       3.86909764       7.83762113       7.88003694       3.45559059       0.00041241       0.00091547      -0.00028004
Cu       3.90344388       9.90184451       9.97659644       2.41425052      -0.00042908      -0.00152869       0.00167108
Au       5.72690442       7.99232844       9.85469371      -0.04693748       0.00042722       0.00049900       0.00315321
Al       5.79450656       9.80935860       7.87737542      -2.21747217       0.00103144       0.00431033      -0.00009693
Au       3.85206345       7.91910120      11.89052917      -0.67208811       0.00050689      -0.00057717      -0.00234881
Al       3.85992321       9.88688493      13.67932097      -3.72357361       0.00074732       0.00097446      -0.00108143
Cu       5.84760297       7.88381563      13.73462851       2.72689184       0.00006257       0.00137829       0.00049048
Cu       5.79532029       9.87896668      11.76169126       2.20393138      -0.00124247      -0.00275870      -0.00081237
Au       3.80508569      11.84109937       0.02551701      -0.60475842       0.00261263      -0.00047929       0.00207383
Al       3.86050538      13.82939477       2.00777754      -3.23631615      -0.00129376      -0.00142933       0.00037805
Au       5.84323877      11.73153221       1.99783391       0.43815024      -0.00104858       0.00219888      -0.00618705
Au       5.76931108      13.82982051       0.02376466      -0.27896662       0.00182055      -0.00429639       0.00106509
Au       3.86417306      11.69627542       3.95007770       0.30591752      -0.00463064       0.00392162      -0.00195856
Al       3.84471155      13.75496928       5.91583387      -2.21035575      -0.00147245       0.00034648      -0.00267909
Au       5.95616346      11.79387597       5.85879238       0.72727677       0.00265337       0.00036911       0.00259411
Au       5.91482009      13.72993118       3.91546108       0.73199825       0.00179758       0.00390784      -0.00285312
Al       3.92624514      11.80583826       7.90308314      -2.23470460      -0.00170751       0.00325979       0.00373579
Cu       3.84161286      13.81563722       9.84549587       2.19598289       0.00105328      -0.00038181       0.00006380
Cu       5.75638525      11.73032003       9.93238264       2.32845422       0.00081604      -0.00085290       0.00154532
Al       5.80907040      13.73765058       7.94453604      -2.40656276       0.00128917      -0.00297261       0.00161558
Cu       3.89740834      11.87368007      11.68790145       1.82837721       0.00087481      -0.00075105      -0.00050079
Cu       3.80427465      13.82614486      13.67482094       1.91501147      -0.00117544       0.00025723      -0.00073039
Au       5.76314371      11.92221347      13.65414111      -0.58304400       0.00203814      -0.00006736       0.00069659
Au       5.70167851      13.81990631      11.67489244      -1.69867833       0.00072255       0.00054831      -0.00164737
Cu       3.80085089      15.67925083       0.01437307       2.10255622       0.00119014      -0.00045105      -0.00115433
Cu       3.86983264      17.55249166       1.95046528       2.42300911       0.00174986      -0.00027991      -0.00026876
Cu       5.82580947      15.77571675       1.99407597       2.87378984       0.00057474       0.00115488       0.00093651
Au       5.77918527      17.51965898       0.05306003      -0.55340721      -0.00182275       0.00245266      -0.00225879
Al       3.86678939      15.76713433       3.96580241      -2.68616029      -0.00057722      -0.00171760       0.00075418
Cu       3.92172199      17.69172224       5.93192986       2.90436682       0.00070228       0.00032045      -0.00107488
Al       5.82912187      15.68651905       5.84594952      -2.31294232      -0.00025853      -0.00205333      -0.00083313
Cu       5.78433503      17.69129093       3.91952589       2.60647576      -0.00142415      -0.00128259       0.00081561
Au       3.83387214      15.70922560       7.86323082      -1.01201740      -0.00488791       0.00123632       0.00372975
Cu       3.82661512      17.57872112       9.80861749       2.19246462      -0.00108139      -0.00143727       0.00221274
Cu       5.69382409      15.75709729       9.85608431       2.22981509       0.00071430       0.00110028       0.00045598
Au       5.80302593      17.63627872       7.84822615      -0.27498971       0.00141494      -0.00064194      -0.00045337
Cu       3.80275540      15.71272686      11.69291487       1.55020837       0.00082795      -0.00045583       0.00011828
Au       3.81493819      17.52712285      13.62311226      -1.13100642       0.00207957       0.00153271       0.00001485
Al       5.77801014      15.63380768      13.67511548      -3.81175002       0.00049240      -0.00347546       0.00009643
Cu       5.78717273      17.50722149      11.71891039       2.47755017      -0.00039020       0.00033555       0.00008602
Au       7.81970060      -0.02933687       0.01189634       0.15489344      -0.00316589      -0.00034056       0.00249621
Au       7.75193226       1.89801255       2.00613234      -0.44042493      -0.00099610      -0.00102748      -0.00301171
Cu       9.75932896       0.05587755       1.95154042       2.31673789      -0.00029366      -0.00049262       0.00090219
Cu       9.78008859       1.85843171       0.06266769       2.57608839       0.00124885       0.00004596       0.00071432
Cu       7.74288651       0.03635836       3.92666193       2.23156140       0.00093625       0.00038023      -0.00050229
Cu       7.74267628       1.89431480       5.77586911       2.50717157      -0.00003426       0.00019026      -0.00054546
Al       9.77506850      -0.03850232       5.82046543      -2.56234958      -0.00059067       0.00110336       0.00108950
Au       9.75019955       1.88847225       3.86035550      -0.65611147      -0.00036635      -0.00030561      -0.00168340
Al       7.82023858      -0.05132207       7.84128098      -2.28316324       0.00051829       0.00005473       0.00048471
Cu       7.82688858       1.95949957       9.78339445       3.42930432      -0.00077084       0.00163944       0.00015873
Al       9.79270340      -0.03773968       9.81756253      -1.74649532       0.00028135      -0.00083005      -0.00032618
Au       9.74193184       1.95312654       7.78738762       0.74672918      -0.00034649      -0.00190782      -0.00024838
Au       7.79773335       0.04452982      11.72135310       0.07772751       0.00103133      -0.00100332      -0.00091799
Au       7.73956730       1.99429813      13.72899484       0.02373542       0.00331365       0.00050858       0.00089060
Au       9.84216382       0.04489321      13.76282187       0.10330039       0.00003511      -0.00080948      -0.00014846
Au       9.83386060       2.03629219      11.76335143       0.73523823       0.00122683      -0.00097694      -0.00027850
Al       7.71729447       3.91684487       0.07153957      -2.36568829       0.00159839       0.00096030       0.00012222
Al       7.73840357       5.92320202       1.97362580      -2.53676038       0.00279584      -0.00195132      -0.00554444
Al       9.75136028       3.90272763       1.91367118      -2.25723202      -0.00208487       0.00114935      -0.00000678
Au       9.75847867       6.06587498       0.06667763       0.64767361      -0.00405731       0.00072831       0.00385642
Au       7.71934424       3.88099514       3.93378011       0.00300527       0.00455454      -0.00247305       0.00132123
Au       7.81793998       6.07276907       5.84021941       0.36080962      -0.00026303      -0.00097298      -0.00183781
Au       9.77791062       3.93720480       5.80229808      -0.28583413      -0.00040853      -0.00266064      -0.00099510
Au       9.78795931       5.96254979       3.89657263      -0.52961163      -0.00050205      -0.00188545      -0.00116493
Au       7.78721019       3.89590457       7.74792486       0.76215835       0.00126167      -0.00053084       0.00189007
Al       7.79204429       5.90879801       9.77586302      -1.29905364       0.00029767      -0.00282633       0.00256273
Al       9.80037388       3.94006278       9.74644483      -2.24831745       0.00002977       0.00234145       0.00097477
Au       9.86394456       5.96570005       7.73045755       0.62876568       0.00178638       0.00018236       0.00072174
Al       7.76577130       3.91768377      11.74517791      -2.35506995       0.00250515       0.00332009      -0.00075759
Au       7.77001849       5.93348234      13.73673526       0.19945252       0.00125145       0.00147546      -0.00095015
Au       9.78464574       3.91428149      13.84330803       0.52700140       0.00133393       0.00045884       0.00011004
Au       9.82383428       5.83413377      11.77601565       1.36075542      -0.00043439      -0.00010539      -0.00133244
Cu       7.72652302       7.87655441      -0.03037677       2.97384807       0.00273758      -0.00052822       0.00085362
Al       7.84410782       9.82192771       1.98866382      -3.26179842       0.00407437       0.00088495      -0.00136822
Cu       9.80762888       7.88334004       1.97871552       2.92227149      -0.00171847      -0.00075849       0.00046843
Au       9.73630408       9.76097660       0.04115913      -0.84131443      -0.00368660       0.00017751       0.00302729
Cu       7.94695665       7.86566306       3.88628765       3.19379259       0.00430991       0.00315985       0.00158595
Au       7.83455966       9.68352939       5.84537611       0.46451509      -0.00264281       0.00322158      -0.00174025
Cu       9.86845735       7.84761164       5.79423399       3.08137346       0.00097225       0.00083288      -0.00050316
Au       9.79880686       9.78328324       3.91568407      -0.91864880      -0.00564904      -0.00085202      -0.00021921
Al       7.81612677       7.93213133       7.92930236      -1.59705352      -0.00005383       0.00160272       0.00057452
Cu       7.72578762       9.91797474       9.92350043       3.05127843       0.00305973      -0.00016970       0.00052315
Al       9.86543870       7.88628242       9.81238162      -1.77649094      -0.00115099      -0.00057613       0.00045011
Al       9.85002025       9.74377509       7.84297188      -2.20099228       0.00026061       0.00106056      -0.00041630
Au       7.75155758       7.93951739      11.72559199       0.14965310      -0.00060121      -0.00103379      -0.00318300
Au       7.74864341       9.84261252      13.69358569      -0.55815730       0.00041640      -0.00138983       0.00185858
Al       9.79588160       7.88321244      13.68926717      -2.64314366      -0.00012959      -0.00030176       0.00046385
Au       9.82379999       9.90749098      11.73525941       0.53531895      -0.00012291      -0.00316254      -0.00300011
Au       7.86043631      11.86183525      -0.04342624      -0.81884136      -0.00104030      -0.00083497       0.00186588
Al       7.85650583      13.70850634       1.96939596      -2.86511684      -0.00002814      -0.00283260       0.00119046
Cu       9.83001992      11.77969552       1.99129950       2.67949432      -0.00044943      -0.00079799      -0.00116975
Cu       9.75794753      13.68721237      -0.05254213       2.60192558      -0.00163747      -0.00035149      -0.00034656
Cu       7.86570865      11.77787103       3.95517754       3.05819867       0.00136591       0.00124973       0.00080489
Cu       7.85939015      13.65831714       5.88933450       3.32315747      -0.00185708      -0.00017733      -0.00187924
Al       9.78219999      11.71031096       5.92041071      -2.73302426       0.00127565       0.00235294       0.00141245
Au       9.80889603      13.64513661       3.91804682      -0.02170722      -0.00118458      -0.00172651       0.00141868
Au       7.77183652      11.73567407       7.94523968       0.49096506      -0.00197915       0.00022671      -0.00308009
Al       7.75172926      13.79171069       9.84680478      -2.31040924       0.00174321      -0.00089373       0.00028385
Au       9.85907056      11.79255385       9.76727888       0.50555046      -0.00031734      -0.00274958       0.00012491
Au       9.82305626      13.77192997       7.82419343       0.48004360      -0.00044989      -0.00049956      -0.00242060
Al       7.77952512      11.85945706      11.78082039      -3.06754414       0.00140873      -0.00321687      -0.00056223
Cu       7.83377813      13.76991363      13.76174506       2.51424196       0.00123229       0.00089040      -0.00099908
Cu       9.75952650      11.74916794      13.79186832       3.05924321       0.00234470      -0.00055979       0.00008962
Al       9.77122358      13.73241052      11.81903925      -2.04025373      -0.00072595       0.00101512       0.00040072
Au       7.85844423      15.63363956       0.02378430      -0.19708760       0.00064071       0.00036790      -0.00066426
Au       7.80191378      17.68138577       2.09110384      -0.54271606      -0.00104213       0.00159242       0.00044090
Al       9.83582372      15.67228786       2.01274675      -2.23424895      -0.00169398       0.00073971       0.00005581
Al       9.77515786      17.64024293       0.03102387      -2.51397270      -0.00288714       0.00125048       0.00053053
Al       7.82593503      15.67987178       3.92241610      -2.33141750       0.00024206      -0.00039802      -0.00097844
Au       7.74097560      17.72422905       5.72658713       0.09174216       0.00108122       0.00012707       0.00012978
Al       9.80878479      15.72340163       5.78353141      -2.15919516       0.00092496       0.00193667       0.00032492
Cu       9.78879930      17.77203859       3.81613677       3.11509189       0.00138061      -0.00055899       0.00035158
Au       7.77050953      15.66647529       7.77991139       1.06835765       0.00005090      -0.00102923       0.00080412
Au       7.73315542      17.47258939       9.92636032       0.24583077      -0.00058368       0.00179825       0.00009731
Al       9.83059124      15.61478271       9.85020278      -1.95706294      -0.00047773      -0.00089597       0.00026925
Al       9.78766854      17.55837851       7.83046474      -1.54693788      -0.00124177      -0.00022391      -0.00179862
Cu       7.72712951      15.61387324      11.83389648       2.93341131      -0.00068345       0.00057040      -0.00117926
Au       7.79621716      17.54936599      13.62989557      -0.22437110      -0.00166174      -0.00111164       0.00034537
Cu       9.67327899      15.61333975      13.75552083       3.05496315      -0.00305536       0.00105780      -0.00033948
Al       9.85193388      17.54656113      11.82132295      -2.05546878      -0.00351244      -0.00083483      -0.00066775
Cu      11.71180084       0.12443408       0.04275791       2.52780178      -0.00117485      -0.00067861       0.00045494
Cu      11.76662565       1.90424423       1.91766769       2.33137459       0.00019051      -0.00036598       0.00051833