399
Lattice="19.59262691714357 -0.0029401591670048664 0.00043227724696582155 -0.0029405439160256983 19.594541571232078 0.002722427805357169 0.0003459403246241731 0.002177382872289726 15.670877927394494" Properties=species:S:1:pos:R:3:energies:R:1:forces:R:3 energy=11.881205675698482 free_energy=11.881205675698482 stress="0.00013588485034632812 -0.00010201361478797622 0.00010330011062683299 -0.00010201361478797622 -0.0004628407477677964 -0.0002139951091944117 0.00010330011062683299 -0.0002139951091944117 0.00020505844035773887" pbc="T T T"
Au      -0.05361648       0.06098160       0.04684101      -0.83419231       0.00373646       0.00300700       0.00046467
Cu      -0.09488101       1.89069976       1.91553549       2.74125214       0.00025641      -0.00235967      -0.00225259
Cu       2.01091792      -0.02491783       1.93978025       3.17901444       0.00164342      -0.00002748      -0.00023351
Al       1.90357465       1.95591601       0.08743335      -2.90492685      -0.00137889      -0.00177276       0.00106084
Al      -0.07434330      -0.03046340       3.86771949      -2.48000371       0.00153939       0.00236997       0.00064658
Al      -0.07442945       1.97652839       5.79575083      -1.87727202      -0.00014852      -0.00208928       0.00044601
Al       1.90690481      -0.01202129       5.82686317      -2.18510954      -0.00120452      -0.00058643       0.00023494
Al       1.89996504       1.88668107       3.79736962      -2.81496755      -0.00197115       0.00022015      -0.00017196
Al      -0.07253164      -0.02880240       7.74804959      -2.49114785      -0.00129961      -0.00214164      -0.00107546
Au       0.00285239       1.92263422       9.74467355       0.02136445      -0.00146955       0.00233260       0.00104519
Cu       1.88537864      -0.11808386       9.78732947       2.20471809       0.00027109      -0.00089712      -0.00085805
Au       1.95565293       1.90183239       7.86540879      -0.59547158       0.00115153      -0.00026012      -0.00075103
Cu       0.05045624      -0.18514956      11.67778187       2.08868787      -0.00225262      -0.00040587      -0.00295805
Au       1.83409455      -0.01352370      13.65720501       0.10285427      -0.00101637      -0.00412938       0.00777153
Au       1.90017416       1.87064511      11.66406634      -0.59421214       0.00312590       0.00421755      -0.00376356
Cu       0.02970329       3.92309931       0.18373664       2.33955097      -0.00174325       0.00072578      -0.00186804
Cu      -0.08862665       5.83003786       1.89427496       2.77425522      -0.00082894      -0.00060136      -0.00015878
Cu       1.90840552       3.84185901       1.95511849       2.85823177       0.00196990       0.00071830       0.00058099
Au       1.94165004       5.78658839       0.07984493      -0.35647463      -0.00186584      -0.00158977      -0.00246326
Al      -0.04874561       3.87126184       3.79960301      -2.52994541       0.00085531       0.00026875       0.00131470
Au       0.00702683       5.76651631       5.91532984       0.14597925      -0.00003891       0.00015355       0.00183060
Au       2.02755510       3.78359035       5.80547658       0.33263902      -0.00075807      -0.00011511       0.00081254
Al       1.91874400       5.77600340       3.82846646      -2.31022058       0.00012230       0.00241589       0.00014755
Cu       0.11873881       3.87343691       7.81747781       3.31777476      -0.00140178       0.00116064      -0.00147034
Au       0.06114136       5.84460072       9.69782689       0.58480860      -0.00207678      -0.00093097       0.00317599
Cu       1.96582728       3.83734973       9.78386978       2.87765594      -0.00099663      -0.00038751       0.00196687
Al       1.98754932       5.86347115       7.81710341      -3.22257142      -0.00072962       0.00103067      -0.00234623
Au       0.02922296       3.92615220      11.73757591       0.55036014      -0.00368891       0.00158270      -0.00371792
Au      -0.02637750       5.85884266      13.84110439       0.41582427       0.00119056      -0.00167459      -0.00048941
Au       1.89819038       3.84695009      13.77367938       0.57892468       0.00044952       0.00156642       0.00081355
Al       1.98722653       5.87786401      11.81079653      -2.75190780      -0.00029290       0.00002182       0.00159127
Al       0.01372001       7.82749864       0.06895472      -2.96402094      -0.00102631      -0.00054210       0.00005512
Au       0.04595129       9.79007037       2.06025885      -0.06098797      -0.00005244       0.00033010       0.00012539
Al       1.94903574       7.83906300       1.94998937      -2.41946958      -0.00129073       0.00023071       0.00044028
Cu       1.98098443       9.84787809       0.01704260       3.02427192      -0.00025395       0.00008466       0.00096846
Al       0.06125367       7.76991754       3.96185267      -2.61878725      -0.00032694      -0.00028723      -0.00116393
Al       0.05391571       9.75544150       5.93019906      -2.71831506      -0.00056243       0.00154425      -0.00029498
Cu       1.96399998       7.81223829       5.92951321       3.14902468      -0.00029576       0.00078343      -0.00026937
Cu       1.92987315       9.90373233       3.93882583       3.08102725       0.00049438      -0.00005084      -0.00113971
Cu       0.00297021       7.73749972       7.76292342       3.57951055       0.00020590       0.00031159      -0.00119801
Al       0.01625970       9.80038232       9.70949566      -2.23567881       0.00037943       0.00047991      -0.00087072
Al       2.02279423       7.90913457       9.78338605      -2.21424068       0.00025443       0.00149227      -0.00002079
Al       1.99879331       9.79354864       7.89246753      -2.12850700       0.00033676       0.00028108       0.00048117
Al       0.09388575       7.85846461      11.73971747      -2.16014498       0.00044407       0.00033128       0.00041270
Au       0.17511677       9.79668282      13.69026089       0.01428704       0.00048111      -0.00005446      -0.00076203
Cu       1.96744616       7.81717070      13.78615401       3.07881477      -0.00058675      -0.00037394      -0.00155069
Cu       2.02466539       9.93058771      11.72598517       2.94395725      -0.00008255      -0.00011662      -0.00085744
Al       0.10310707      11.85884103      -0.02861923      -3.03202965      -0.00022594       0.00031032       0.00127685
Cu       0.08636660      13.78960657       2.02133246       2.85951753      -0.00193251       0.00016931       0.00119142
Au       1.88899453      11.80630820       1.99577857      -1.07719793       0.00009482       0.00003615       0.00084415
Cu       1.99142624      13.84260559      -0.06422848       2.20787870       0.00145526      -0.00177674      -0.00003256
Cu       0.01807716      11.80647940       3.98094088       2.75715086      -0.00106242       0.00102383      -0.00002350
Au       0.02284848      13.81319775       6.07052777      -1.61070041      -0.00077807       0.00025373      -0.00077111
Au       1.86797428      11.80591365       5.94333906       0.06979482       0.00062713       0.00017038      -0.00026075
Au       1.86143300      13.81398051       3.95989032      -0.40924267       0.00110528       0.00016244      -0.00046691
Cu       0.03553547      11.89517851       7.88749010       3.24550567       0.00024941       0.00018034       0.00055134
Au      -0.04521430      13.78903856       9.69773444      -2.02331284       0.00014419       0.00083617      -0.00056754
Au       2.02667626      11.86947072       9.81812262      -1.42854800       0.00077651       0.00004717      -0.00061132
Cu       1.92604865      13.81898264       7.91308367       2.65514990      -0.00110894       0.00011191      -0.00002182
Au       0.01655788      11.80144723      11.66277085      -0.45121649      -0.00067697       0.00001994       0.00105301
Au       0.04177235      13.82815306      13.59047860      -0.68239342      -0.00060393       0.00149058       0.00060842
Au       2.02419862      11.89752720      13.60218360      -1.28023494      -0.00079348       0.00049904      -0.00009653
Cu       2.04381247      13.78753601      11.72171311       1.98431513      -0.00021030       0.00103893       0.00030958
Au       0.06553223      15.60854262      -0.00619381      -0.53692510       0.00091653      -0.00006803      -0.00053797
Al      -0.01443429      17.69179155       1.98203481      -2.50423719       0.00144861      -0.00188199       0.00202340
Cu       1.90329020      15.67095139       1.91411985       2.69907334      -0.00045076      -0.00210483       0.00163526
Au       1.94827725      17.59150956       0.04747418      -1.20950152      -0.00159791       0.00439922      -0.00395352
Au       0.00680950      15.78979130       3.96259779      -0.33018151       0.00011118      -0.00030685      -0.00014209
Cu      -0.09452064      17.59132059       5.87784699       2.88169828       0.00079281      -0.00055522       0.00045327
Cu       1.85571095      15.76483390       5.98985376       2.62639912      -0.00134242       0.00000865       0.00105803
Al       1.96448058      17.65673358       3.92434378      -2.62826093       0.00160371      -0.00013269      -0.00120663
Cu       0.01999945      15.72159376       7.90523235       2.22871479      -0.00204401      -0.00080614      -0.00040194
Cu       0.00350774      17.57881948       9.80551885       2.18120777      -0.00160632      -0.00032992       0.00080888
Au       1.94418014      15.70630820       9.83905206      -2.47088010       0.00159302      -0.00081160      -0.00118654
Au       1.85575217      17.63580455       7.83366689      -1.59307007      -0.00088726      -0.00156355      -0.00069385
Al      -0.06029106      15.70253497      11.67320573      -4.12167865      -0.00035182      -0.00108027      -0.00045891
Au      -0.00712999      17.57279178      13.64523821      -1.34606998       0.00168282      -0.00074773       0.00139754
Cu       1.98742772      15.65749867      13.65700992       1.87386839      -0.00050770      -0.00133094       0.00130615
Cu       1.91769739      17.61260630      11.68889747       2.01532657       0.00167013      -0.00051325       0.00026974
Au       3.84134847      -0.02661356       0.06401880       0.10847767      -0.00128113      -0.00180941      -0.00108554
Cu       3.88675638       1.93888573       2.05227278       2.56268481       0.00205532      -0.00010502       0.00077897
Al       5.79147473      -0.02641412       1.99079086      -3.46939591       0.00114439      -0.00004182       0.00101928
Al       5.78837833       1.95044350       0.02784149      -2.30251611       0.00020816       0.00016524       0.00006355
Au       3.92282129      -0.02738292       3.90879259      -1.40695338      -0.00072000       0.00021488      -0.00004681
Cu       3.94448170       1.85901025       5.83935020       2.67679761       0.00108621       0.00050829      -0.00127213
Cu       5.80692992      -0.01326558       5.78557990       1.87290165       0.00049306       0.00146628       0.00013506
Cu       5.80830608       1.88286135       3.95063732       1.75750557      -0.00004711      -0.00022647      -0.00017404
Au       3.86350957      -0.04077807       7.86204227      -0.99233721       0.00084255       0.00181306       0.00026122
Cu       3.83176502       1.92932561       9.79034549       2.87943501      -0.00122072       0.00116624       0.00238696
Al       5.83056909       0.00269745       9.84588185      -2.97283337      -0.00123841       0.00058497       0.00068914
Au       5.87572627       1.84486427       7.75898459      -0.29696447      -0.00024394      -0.00018271       0.00019476
Al       3.86278255      -0.05907386      11.65328444      -3.29092799       0.00023575       0.00192870      -0.00048284
Al       3.90941194       1.91154542      13.69564409      -2.26327212       0.00073477       0.00126335      -0.00036118
Au       5.81044687      -0.09100488      13.63791084       0.26761064      -0.00002657       0.00005750       0.00291988
Cu       5.86304231       1.96002148      11.77723548       3.12133174      -0.00009734       0.00035940      -0.00070667
Al       3.92721591       3.85144968       0.06260961      -2.54071618      -0.00063749       0.00271044       0.00047984
Al       3.91862050       5.77823518       2.01609901      -2.28009381       0.00112477      -0.00108599       0.00092626
Cu       5.77969149       3.73827655       2.11381651       2.94453746      -0.00081224       0.00124444      -0.00045311
Au       5.78524044       5.89861900      -0.05546858      -0.20992911       0.00020070      -0.00262083       0.00048487
Cu       3.89347636       3.72003741       3.87326686       2.39430387      -0.00050639       0.00137700       0.00056360
Au       3.83793197       5.90162375       5.82726605       0.53454792       0.00045529       0.00025567      -0.00151306
Al       5.78304635       3.86631709       5.82239507      -3.01687053      -0.00051603       0.00187331      -0.00064341
Al       5.81320833       5.87716326       3.90272965      -2.36180328      -0.00099669       0.00182510       0.00023482
Au       3.89919574       3.80788430       7.86449253       0.11578852       0.00072585       0.00175526      -0.00167434
Au       3.87602158       5.86407678       9.79279710       1.00012557      -0.00034190       0.00297585      -0.00066704
Al       5.87178278       3.81452345       9.80374550      -2.36667983       0.00169613       0.00058305      -0.00116267
Al       5.84247572       5.88254532       7.84194392      -2.05478837      -0.00020776       0.00081930       0.00106298
Au       3.90128773       3.83429511      11.75607094      -0.29239017      -0.00476157      -0.00379671       0.00187399
Cu       3.86600091       5.88109364      13.76569211       2.76979909      -0.00015662      -0.00031339       0.00063905
Cu       5.79262635       3.95242688      13.67422473       3.27372088      -0.00011601       0.00003573       0.00102556
Al       5.79251262       5.90293785      11.79001565      -2.60988820       0.00135873       0.00198661       0.00086286
Au       3.83802600       7.87653900      -0.06330350      -0.78314961       0.00048734       0.00168117      -0.00038473
Cu       3.81760048       9.86650298       1.91485005       2.81159405      -0.00015806       0.00050612      -0.00003670
Au       5.80504501       7.90279520       1.96260504       0.53621091      -0.00060760       0.00015294       0.00024472
Au       5.82066577       9.82837397      -0.01562727      -0.32618624      -0.00037525       0.00063602      -0.00119586
Au       3.76247952       7.97206187       3.92403837       0.48731618      -0.00093434       0.00044175      -0.00088945
Al       3.84564160       9.84274338       5.93837274      -2.31709562       0.00050319       0.00050632      -0.00093394
Au       5.81839762       7.87751749       5.87898430       0.91659692      -0.00043269      -0.00112840       0.00030374
Al       5.87111242       9.83224047       3.90992459      -2.72152425       0.00057712       0.00051686      -0.00079481
Cu       3.90905871       7.82709864       7.81467288       3.45761084       0.00012610       0.00161208       0.00133090
Cu       3.90947333       9.92011390       9.98247070       2.42765798      -0.00047972      -0.00090666      -0.00106675
Au       5.72313006       7.99055770       9.82324581      -0.03380910      -0.00040493      -0.00021470       0.00068117
Al       5.77852005       9.88168833       7.91001829      -2.53695098       0.00002565      -0.00063951      -0.00017004
Au       3.86682116       7.92286673      11.88110540      -0.66621028       0.00032788       0.00064225       0.00100629
Al       3.86995231       9.88667071      13.67766514      -3.72523805      -0.00068267      -0.00058961      -0.00068684
Cu       5.84714342       7.87913592      13.73712109       2.72751370      -0.00091071      -0.00033125      -0.00194089
Cu       5.80046831       9.87891832      11.74958225       2.20037033       0.00002739      -0.00146049      -0.00015201
Au       3.80309346      11.84959518       0.01425113      -0.61363167      -0.00000441      -0.00080059       0.00071110
Al       3.84905209      13.85941989       1.98522950      -3.25787397       0.00168600      -0.00003297      -0.00011209
Au       5.84428471      11.77916149       1.95872974       0.49478652       0.00084690      -0.00032419      -0.00034016
Au       5.76383158      13.85101545       0.00440775      -0.28417951      -0.00015940      -0.00073288      -0.00011442
Au       3.84920297      11.75422134       3.92099729       0.35262494       0.00101714       0.00121256      -0.00003033
Al       3.83604085      13.77994050       5.90593905      -2.21932326      -0.00051368      -0.00097293      -0.00002542
Au       5.94084904      11.83571614       5.86061739       0.75307116       0.00060640      -0.00084919      -0.00065492
Au       5.91497153      13.75420581       3.89866306       0.73035408       0.00153428       0.00024967       0.00024392
Al       3.91024200      11.85339519       7.91202730      -2.24464291       0.00052773      -0.00043015       0.00029064
Cu       3.84392613      13.82448205       9.85681196       2.20628385      -0.00010144       0.00132446      -0.00027516
Cu       5.75779187      11.75668638       9.94470116       2.36155093       0.00021244      -0.00055059      -0.00020588
Al       5.81083664      13.75560172       7.95047733      -2.41141510      -0.00064249       0.00059741      -0.00005376
Cu       3.89773095      11.88176532      11.69497960       1.82968592      -0.00006249      -0.00012932      -0.00061838
Cu       3.79959685      13.82808200      13.67115860       1.91172641       0.00129080      -0.00014407      -0.00045325
Au       5.76794407      11.92023762      13.65515232      -0.57134872       0.00052394      -0.00203841       0.00014689
Au       5.70672808      13.82690534      11.68496704      -1.71966167      -0.00066475       0.00065120       0.00046615
Cu       3.78059423      15.69911403      -0.00165810       2.09922963       0.00107812      -0.00148578      -0.00047331
Cu       3.85234029      17.56670745       1.93344372       2.42857655       0.00026602      -0.00149279       0.00094867
Cu       5.82193661      15.79249864       1.98347140       2.88245544      -0.00024565      -0.00130740      -0.00004588
Au       5.76265068      17.53389823       0.04370213      -0.55762139       0.00007339       0.00068805      -0.00032600
Al       3.86370660      15.78303154       3.95414182      -2.68663816       0.00253007      -0.00148938      -0.00171904
Cu       3.92218254      17.69125629       5.92575188       2.90047445       0.00004703      -0.00119237       0.00051710
Al       5.83194486      15.69293647       5.84170493      -2.31804476       0.00083830      -0.00014347       0.00042731
Cu       5.78603117      17.69846327       3.91186565       2.59869678       0.00030923      -0.00148594      -0.00066842
Au       3.83376619      15.71291279       7.86367328      -0.98942600      -0.00077719       0.00062891      -0.00010574
Cu       3.82684025      17.57745278       9.80973184       2.18744378       0.00102319       0.00066104       0.00018704
Cu       5.69475166      15.76184636       9.86232465       2.23041711      -0.00111913       0.00156808       0.00058238
Au       5.80697254      17.63561981       7.84903733      -0.26450664       0.00004043       0.00080755      -0.00110664
Cu       3.80124664      15.71696885      11.69732512       1.54407342      -0.00063177      -0.00115734      -0.00223285
Au       3.79161824      17.55121474      13.62068290      -1.12978734       0.00013294       0.00060537       0.00148118
Al       5.76295445      15.65424244      13.66808952      -3.81792911       0.00059975       0.00069278       0.00014080
Cu       5.78121996      17.51602664      11.71906674       2.48531169      -0.00056237       0.00074366      -0.00019421
Au       7.81970707      -0.03496795       0.00022132       0.16826894      -0.00065160       0.00035692       0.00080218
Au       7.76180926       1.88031580       1.98799900      -0.44611075      -0.00110175      -0.00004940       0.00123091
Cu       9.76911140       0.04723528       1.94123263       2.32954878       0.00045032       0.00138459       0.00072842
Cu       9.78764523       1.85617217       0.05966252       2.58197642      -0.00008712       0.00033639       0.00081211
Cu       7.74556577       0.03229913       3.91905524       2.22239730      -0.00079674       0.00124337       0.00129330
Cu       7.75418925       1.87336742       5.77839007       2.50971490      -0.00057043       0.00120798      -0.00100322
Al       9.78567099      -0.04487850       5.82208357      -2.56128429      -0.00104266       0.00061086      -0.00016233
Au       9.76280241       1.87259350       3.85101411      -0.66336145      -0.00056958       0.00034169       0.00061858
Al       7.82964177      -0.05822977       7.84777502      -2.28421363      -0.00058407       0.00110526       0.00102841
Cu       7.83975862       1.94543743       9.79533552       3.45415590      -0.00137769       0.00114433       0.00113320
Al       9.80364425      -0.04608129       9.82712111      -1.75258408      -0.00081687       0.00109854      -0.00051717
Au       9.76820024       1.93252441       7.80007813       0.77365268       0.00059576      -0.00011092      -0.00054936
Au       7.80180547       0.04402562      11.72563581       0.06551724       0.00025854       0.00111163      -0.00066946
Au       7.74678737       1.99600199      13.73045122       0.02702249      -0.00033278       0.00014777       0.00012441
Au       9.85075810       0.04362114      13.76335741       0.10241651      -0.00122302       0.00061446      -0.00065178
Au       9.84353176       2.03339207      11.77108887       0.73437637       0.00045946       0.00034113      -0.00083486
Al       7.71834770       3.91876599       0.07146145      -2.36449856      -0.00018322      -0.00079367       0.00054998
Al       7.74791927       5.92389658       1.97742767      -2.51209427       0.00043969      -0.00013696       0.00058986
Al       9.75734266       3.89941552       1.90854816      -2.25603283       0.00013132       0.00006975       0.00062869
Au       9.75535275       6.07077923       0.06706144       0.64493440       0.00015060      -0.00100677      -0.00064457
Au       7.73627358       3.83907085       3.91774936       0.02385169      -0.00021800       0.00041069       0.00134959
Au       7.84468006       5.97188773       5.85364675       0.32947160      -0.00022643       0.00039475       0.00062420
Au       9.79787445       3.90836818       5.80556731      -0.28919098       0.00008150      -0.00008516       0.00067891
Au       9.78521448       5.96135582       3.89700233      -0.48907148       0.00101790      -0.00086189      -0.00031341
Au       7.81048796       3.84687998       7.77651265       0.74211082       0.00034485       0.00234136       0.00074007
Al       7.80504836       5.89835131       9.78063716      -1.30028506       0.00063737      -0.00141762       0.00005679
Al       9.81903626       3.93242764       9.75993846      -2.25136459       0.00004733      -0.00116097       0.00046466
Au       9.88068726       5.95120726       7.74473056       0.63122377      -0.00002706      -0.00025403       0.00040293
Al       7.77340520       3.91525433      11.74816820      -2.34812873      -0.00037012      -0.00037265       0.00051254
Au       7.76444375       5.93539877      13.73530072       0.18866473       0.00069797      -0.00146786      -0.00071111
Au       9.78878926       3.91780554      13.84693831       0.52863200       0.00022620      -0.00050573       0.00106504
Au       9.82804017       5.83461861      11.77927136       1.37230038      -0.00010471      -0.00214525       0.00114321
Cu       7.71933911       7.87395008      -0.02343340       2.97511099       0.00107069      -0.00066913      -0.00074503
Al       7.84419449       9.82939487       1.99243635      -3.23241517       0.00005623      -0.00152578      -0.00136056
Cu       9.78580272       7.88083397       1.99268760       2.94630978       0.00088020      -0.00109742       0.00011122
Au       9.73102065       9.75171652       0.04224272      -0.83120894      -0.00038976      -0.00073660      -0.00003882
Cu       7.88442779       7.86555089       3.95332185       3.09821729       0.00024698      -0.00113935       0.00019333
Au       7.85585631       9.77744706       5.84969746       0.40188535       0.00046289      -0.00058383      -0.00013018
Cu       9.84137004       7.84409287       5.80140983       2.99280123       0.00071574      -0.00059724       0.00042473
Au       9.79433709       9.77712636       3.91274735      -0.87606293       0.00015441      -0.00121131       0.00032270
Al       7.81757774       7.92836759       7.92125048      -1.88293557       0.00040311      -0.00021113       0.00156111
Cu       7.72845926       9.92514512       9.91571434       3.03711474       0.00031800      -0.00088817       0.00047714
Al       9.86839827       7.88029381       9.81319027      -1.76956350       0.00018478      -0.00035662       0.00161250
Al       9.84989328       9.75257552       7.85088085      -2.21187914      -0.00003468      -0.00077202       0.00156364
Au       7.74051746       7.94002971      11.71356648       0.14206556       0.00069625      -0.00104232       0.00048728
Au       7.74423500       9.83520798      13.69327890      -0.55544708      -0.00011813      -0.00134624      -0.00091824
Al       9.78926283       7.88037105      13.68504478      -2.63594082      -0.00007929      -0.00044407       0.00014563
Au       9.82310593       9.89865847      11.73229199       0.53290333       0.00037486      -0.00010900       0.00025351
Au       7.86622004      11.86471467      -0.05221895      -0.82950184      -0.00155219      -0.00109196      -0.00131944
Al       7.86453332      13.72553287       1.95501534      -2.87018860       0.00014530      -0.00015892      -0.00076734
Cu       9.82770677      11.78119604       1.98984978       2.67072429       0.00084606      -0.00082234      -0.00047671
Cu       9.75870388      13.69084053      -0.06141578       2.60283342      -0.00030104      -0.00048751      -0.00141498
Cu       7.87352803      11.81539009       3.94572675       3.05849716       0.00129516      -0.00065686      -0.00120036
Cu       7.86602988      13.67203803       5.88358238       3.31235112       0.00025940       0.00022204      -0.00012374
Al       9.80828281      11.73972088       5.91576654      -2.72559756      -0.00003729       0.00029904      -0.00063763
Au       9.81804472      13.65982605       3.90939630      -0.04657138       0.00085055       0.00028102      -0.00024987
Au       7.77970834      11.77120646       7.94934177       0.49706640      -0.00001291      -0.00033960      -0.00069472
Al       7.75667119      13.80432549       9.85661610      -2.32139633      -0.00021251      -0.00121841      -0.00060586
Au       9.86288444      11.79667626       9.77389287       0.50542512      -0.00016219       0.00011510      -0.00017191
Au       9.83291757      13.78244040       7.82959138       0.47751708      -0.00064155       0.00017430       0.00016890
Al       7.78548096      11.85784781      11.78440821      -3.07117338       0.00066964      -0.00013842      -0.00088852
Cu       7.82882744      13.77890277      13.75903452       2.51631321      -0.00023381       0.00058867      -0.00115474
Cu       9.76289355      11.73906775      13.78822805       3.07354234       0.00081333       0.00021579      -0.00051260
Al       9.77305388      13.73452486      11.82448904      -2.04076620       0.00019870      -0.00089874      -0.00063657
Au       7.85331517      15.64784966       0.01624172      -0.18970016       0.00138950      -0.00112975      -0.00020426
Au       7.79977809      17.68758130       2.08183910      -0.55254387       0.00034559       0.00127964       0.00043541
Al       9.83855369      15.67894306       2.00276877      -2.22845266      -0.00184944       0.00063430       0.00044103
Al       9.77967355      17.64025232       0.02645306      -2.52459345       0.00006580       0.00059762      -0.00061196
Al       7.83173213      15.69068873       3.91514421      -2.33622097       0.00008341       0.00025745       0.00106888
Au       7.74440930      17.72747959       5.72592627       0.09287580      -0.00015227       0.00038328      -0.00008463
Al       9.81251978      15.72846698       5.78308758      -2.16495387      -0.00007501       0.00027631       0.00061197
Cu       9.79069691      17.77249072       3.81182012       3.10946261      -0.00166595       0.00062567       0.00061721
Au       7.77672401      15.67080435       7.77993154       1.07002110      -0.00108133       0.00071194       0.00088489
Au       7.73522045      17.47352428       9.92983766       0.24639289      -0.00157996       0.00084846       0.00034611
Al       9.83599917      15.61940065       9.85562886      -1.95315213      -0.00098778      -0.00049404       0.00086424
Al       9.79647437      17.55751343       7.83399609      -1.54698542      -0.00162707       0.00022367      -0.00013420
Cu       7.72782280      15.62050369      11.83864970       2.94758522      -0.00092081       0.00004837      -0.00041716
Au       7.79352361      17.55463367      13.62709216      -0.22717783      -0.00004361       0.00054303      -0.00004662
Cu       9.67389351      15.61698533      13.75525497       3.06028106       0.00068288      -0.00001590      -0.00115775
Al       9.85499646      17.54604288      11.82453197      -2.06153673      -0.00012864      -0.00054111      -0.00027181
Cu      11.71811764       0.11993624       0.04295188       2.53680337       0.00039219       0.00057832      -0.00080692
Cu      11.77428338       1.90314931       1.91612796       2.32749923       0.00091269      -0.00108577      -0.00014873