399
Lattice="19.59262691714357 -0.0029401591670048664 0.00043227724696582155 -0.0029405439160256983 19.594541571232078 0.002722427805357169 0.0003459403246241731 0.002177382872289726 15.670877927394494" Properties=species:S:1:pos:R:3:energies:R:1:forces:R:3 energy=12.01047704601726 free_energy=12.01047704601726 stress="0.0006594000271690468 8.701642364753706e-05 -4.389356722543552e-05 8.701642364753706e-05 1.0779100382414396e-05 -3.236206189664357e-05 -4.389356722543552e-05 -3.236206189664357e-05 0.0009718760804765092" pbc="T T T"
Au      -0.01976866       0.04418641       0.06458942      -1.22903337      -0.00162780       0.00113111      -0.00062637
Cu      -0.08390786       1.90024166       1.89797128       2.72448719      -0.00097646       0.00036432       0.00003283
Cu       2.03350180      -0.04183585       1.95389091       3.20904239      -0.00010671       0.00001433       0.00026625
Al       1.95694452       1.93620564       0.11741773      -3.32025523      -0.00018996       0.00008288      -0.00083087
Al      -0.07000018      -0.02308525       3.85826375      -2.46672923      -0.00018112      -0.00180710      -0.00081073
Al      -0.07719789       1.97447089       5.79881590      -1.87462633      -0.00007865       0.00034185      -0.00039844
Al       1.90390195      -0.01424711       5.82890378      -2.18241235       0.00032251      -0.00169092      -0.00045429
Al       1.90293170       1.89024997       3.79329097      -2.80949514      -0.00071738      -0.00016694      -0.00037336
Al      -0.07547590      -0.02617734       7.75184738      -2.47225421       0.00117423      -0.00086260       0.00139375
Au       0.00352918       1.93012729       9.75679431      -0.01865280      -0.00013336      -0.00004998      -0.00143853
Cu       1.87199265      -0.11335596       9.80327681       2.18553255      -0.00011264       0.00027723       0.00008963
Au       1.95267499       1.90079761       7.87235046      -0.58988681      -0.00154161       0.00019041       0.00172771
Cu       0.03119773      -0.11655713      11.74354791       2.01306370      -0.00171767      -0.00127038      -0.00097610
Cu       0.00396283       1.89140757      13.78473010       2.56672613      -0.00040742      -0.00051643      -0.00119695
Au       1.87583971      -0.03575046      13.67267516      -0.28367231      -0.00202997       0.00198063      -0.00126716
Au       1.89633974       1.87051586      11.68908597      -0.87501611       0.00017192       0.00033582       0.00060527
Cu       0.02312379       3.84099672       0.09427163       2.23441414      -0.00179148      -0.00067124      -0.00013807
Cu      -0.08892085       5.78662811       1.85847299       2.76524007      -0.00175720      -0.00086067       0.00027570
Cu       1.88030489       3.84096426       1.93892395       2.87423912      -0.00180110       0.00066038       0.00071744
Au       1.93340061       5.77198867       0.07957468      -0.36031034      -0.00058945      -0.00216127      -0.00138484
Al      -0.05380105       3.86531682       3.80408422      -2.52138277      -0.00026602       0.00124082      -0.00024825
Au       0.00791582       5.76965038       5.91551809       0.14194342       0.00042826       0.00080798       0.00022760
Au       2.02420949       3.78105152       5.81233360       0.33028686      -0.00102476       0.00050341      -0.00059063
Al       1.91079027       5.76588602       3.82735848      -2.29578649      -0.00122197      -0.00039521      -0.00068781
Cu       0.11853938       3.87654068       7.82442909       3.30833513      -0.00270316       0.00075193      -0.00186745
Au       0.06244498       5.84041052       9.71901576       0.58831176       0.00102058       0.00031569      -0.00103740
Cu       1.96152317       3.83607894       9.79901797       2.85685237      -0.00134325       0.00071312       0.00187918
Al       1.98253452       5.86476073       7.82794635      -3.22282165      -0.00181877       0.00179623      -0.00050162
Au       0.01440023       3.90864765      11.77535154       0.30009811      -0.00047014       0.00128685      -0.00055121
Au      -0.02894603       5.85035186      13.84594443       0.38848432      -0.00286937      -0.00066409       0.00080631
Au       1.91828128       3.83433384      13.78377529       0.18461877      -0.00009882       0.00052994      -0.00035889
Al       1.98761022       5.87245838      11.82280454      -2.75742329      -0.00317276      -0.00367811       0.00011990
Al       0.01604900       7.82984049       0.06909910      -2.96228502      -0.00137970      -0.00208297       0.00135303
Au       0.07596099       9.81955159       2.04273732      -0.12442315      -0.00055324      -0.00000251       0.00007500
Al       1.93804753       7.82058685       1.94979541      -2.40703377       0.00066489      -0.00135155      -0.00095906
Cu       1.99310449       9.83813716       0.02736246       2.95611374      -0.00125599       0.00163304       0.00223056
Al       0.06343606       7.77190810       3.94389481      -2.58684675      -0.00073327      -0.00140669      -0.00027554
Al       0.06091741       9.75235785       5.91385572      -2.69307936       0.00087664       0.00026826      -0.00003969
Cu       1.95794537       7.80552798       5.92811770       3.16021849      -0.00029604       0.00025095       0.00010391
Cu       1.93786527       9.91278194       3.91098069       3.07506279      -0.00192499      -0.00141311       0.00028656
Cu       0.00631531       7.73937577       7.77084782       3.55951781      -0.00031797      -0.00117850       0.00063405
Al       0.02889745       9.81233165       9.72907179      -2.21976942      -0.00116664      -0.00123329      -0.00071387
Al       2.02409280       7.91526192       9.80086731      -2.19799102      -0.00096865      -0.00155003      -0.00010524
Al       1.99289877       9.78892233       7.89292211      -2.12779975      -0.00094092      -0.00254742      -0.00079985
Al       0.10474137       7.87004965      11.75866319      -2.14690875      -0.00174863      -0.00105639      -0.00073034
Au       0.20293445       9.81916316      13.70987625      -0.01943049      -0.00045708       0.00159485      -0.00177789
Cu       1.96817997       7.81373419      13.80018323       3.09655140       0.00222047      -0.00210926      -0.00018884
Cu       2.04604023       9.95607060      11.76269961       2.91463406       0.00076036      -0.00051476       0.00403286
Al       0.08977574      11.86279988      -0.02051480      -2.97450829       0.00141040      -0.00034986       0.00017831
Cu       0.10883581      13.76221198       2.00436155       2.82900815       0.00234187      -0.00072179       0.00095414
Au       1.98084808      11.79816194       1.89427716      -1.01712049      -0.00177514      -0.00046435      -0.00414505
Cu       2.00726168      13.85309437      -0.07086709       2.11436187       0.00103299      -0.00177273      -0.00055202
Cu       0.05175552      11.80466413       3.93632913       2.69583524       0.00134147       0.00118815      -0.00133740
Au       0.03533503      13.81248525       6.06185477      -1.58279290       0.00146831       0.00114241       0.00137080
Au       1.86395116      11.80037488       5.94078482       0.09551532       0.00043551       0.00047042       0.00083973
Au       1.87229119      13.78520425       3.92967488      -0.44613216      -0.00188442       0.00297193      -0.00111662
Cu       0.03813241      11.89826941       7.88783358       3.23349103      -0.00116521       0.00097040       0.00168995
Au      -0.03867045      13.78174800       9.71380192      -2.01083083       0.00003265      -0.00044714       0.00229416
Au       2.02932506      11.86862265       9.81755413      -1.42498776       0.00026083       0.00126208       0.00017464
Cu       1.92324643      13.82006992       7.91965686       2.65496837      -0.00138428      -0.00021326      -0.00107264
Au       0.06458123      11.80564897      11.70577877      -0.50179601       0.00210707       0.00207410       0.00108990
Au       0.06942381      13.81510891      13.60968130      -0.69339431       0.00137423      -0.00094728      -0.00055642
Au       2.09577600      11.91592882      13.71542315      -1.25409878      -0.00206564      -0.00084782       0.00210930
Cu       2.04757211      13.77257265      11.74197475       1.95684508      -0.00076625      -0.00086643       0.00183052
Au       0.06890227      15.60698810      -0.00136335      -0.53556473       0.00068768       0.00096804      -0.00238197
Al      -0.00766002      17.67956320       1.99119278      -2.49035410      -0.00075983       0.00336239      -0.00016949
Cu       1.91390852      15.65855000       1.91212506       2.72100824       0.00068115      -0.00226583       0.00158478
Au       1.96428467      17.57627926       0.05619733      -1.25003585       0.00054230       0.00208122       0.00054046
Au       0.02327368      15.77383989       3.95989618      -0.30641086       0.00067444      -0.00026994       0.00052291
Cu      -0.09195292      17.58825124       5.87336658       2.86159854       0.00092436       0.00034586      -0.00161922
Cu       1.85838637      15.76425224       5.99175425       2.61476252       0.00094358       0.00119666      -0.00119498
Al       1.97260953      17.64849663       3.92761740      -2.64208664       0.00041040       0.00119626       0.00195154
Cu       0.02121690      15.71450402       7.91377980       2.22092813      -0.00024622       0.00153950       0.00072016
Cu       0.00066968      17.59232298       9.83271169       2.16046942       0.00043254       0.00061677      -0.00048767
Au       1.93764354      15.70759013       9.85144685      -2.44631349      -0.00049632      -0.00012882       0.00080504
Au       1.84641765      17.63506366       7.84449448      -1.57187936      -0.00077084       0.00232503      -0.00149260
Al      -0.05969879      15.69549952      11.68858615      -4.11754051       0.00122120       0.00120784      -0.00168984
Au      -0.00944785      17.58266731      13.65127282      -1.37923227      -0.00002962      -0.00041018      -0.00034767
Cu       1.98159690      15.67511354      13.65727279       1.90745516       0.00092086      -0.00055607      -0.00044150
Cu       1.90665379      17.62677913      11.69538186       2.00413196       0.00040244       0.00061638      -0.00116730
Au       3.86660773      -0.04496507       0.07826049       0.11506622       0.00005184       0.00237925       0.00175407
Cu       3.90570415       1.93600884       2.06809220       2.58439653      -0.00021325       0.00008376      -0.00002329
Al       5.80350967      -0.03164166       2.00590693      -3.48052732      -0.00052504       0.00076665       0.00076722
Al       5.79458223       1.94673275       0.03504242      -2.30078985       0.00124973       0.00222475      -0.00050992
Au       3.92771351      -0.03164610       3.91909850      -1.42879039       0.00072123       0.00034806       0.00028563
Cu       3.94262758       1.85847511       5.84415873       2.67380718      -0.00057228       0.00021454       0.00047773
Cu       5.80764525      -0.01901070       5.78922371       1.88590889      -0.00077645      -0.00029437       0.00036860
Cu       5.80995397       1.88396509       3.95902320       1.75615114       0.00050655      -0.00112613       0.00039019
Au       3.85822249      -0.04420014       7.86634714      -0.97405225      -0.00042670      -0.00156321      -0.00003340
Cu       3.82769621       1.92730510       9.79525213       2.86756147      -0.00065174       0.00048201       0.00107575
Al       5.83366994      -0.00047858       9.84139728      -2.96599894       0.00084390       0.00006415      -0.00016352
Au       5.87204029       1.84377026       7.76006492      -0.29686794       0.00040465       0.00029294       0.00133548
Al       3.87258979      -0.05965084      11.65130651      -3.29959178       0.00000206       0.00076449      -0.00149572
Al       3.92058047       1.90676808      13.70376083      -2.31392618      -0.00006960       0.00081915      -0.00059198
Au       5.81954871      -0.09486014      13.63963499       0.26765243       0.00099233       0.00168245       0.00020550
Cu       5.86872309       1.95597393      11.77557432       3.12225697       0.00080663      -0.00001205       0.00089788
Al       3.93865907       3.85153727       0.07595100      -2.54215560       0.00027280      -0.00070140      -0.00047009
Al       3.91460996       5.77196461       2.02154799      -2.27842054       0.00033009      -0.00124398       0.00066408
Cu       5.78549078       3.74099119       2.12077721       2.95929604       0.00032246      -0.00073192       0.00010787
Au       5.79274833       5.89339169      -0.04739812      -0.20288955       0.00051610      -0.00317063       0.00120271
Cu       3.89154887       3.72196781       3.87894272       2.40830994      -0.00039287       0.00084040      -0.00025128
Au       3.83170888       5.89966358       5.83193183       0.52593342      -0.00042220       0.00133338      -0.00089611
Al       5.77968533       3.86855129       5.82941855      -3.01309810       0.00015024       0.00059168       0.00004667
Al       5.81026486       5.87673713       3.90750499      -2.36660563       0.00108325       0.00011714      -0.00209945
Au       3.89393639       3.80941054       7.87351876       0.11996010       0.00028188      -0.00109086      -0.00131777
Au       3.87213553       5.86794254       9.80251761       1.00397114      -0.00049826      -0.00070694      -0.00107248
Al       5.87287438       3.81547973       9.80302656      -2.35899133       0.00119567       0.00090689       0.00058008
Al       5.83725001       5.88675073       7.84677629      -2.05095665      -0.00032020       0.00125155      -0.00060035
Au       3.91086250       3.82973035      11.75637105      -0.30110282      -0.00017988       0.00046164      -0.00014824
Cu       3.87235358       5.87739257      13.77167551       2.77131372      -0.00046481      -0.00120618       0.00161694
Cu       5.79595066       3.95140109      13.67811548       3.27219005       0.00116342      -0.00124781      -0.00014991
Al       5.78867370       5.90917252      11.79500863      -2.61018007       0.00133626      -0.00263429      -0.00100658
Au       3.83823280       7.85503254      -0.05098172      -0.79179464       0.00032467      -0.00056108      -0.00126535
Cu       3.81775776       9.83071815       1.92390028       2.75976442       0.00034008       0.00004454      -0.00101344
Au       5.80946373       7.90161696       1.96694708       0.50180971       0.00042068       0.00015317      -0.00275242
Au       5.79683335       9.83255203      -0.00974514      -0.26450715      -0.00499860      -0.00502582      -0.00037720
Au       3.75610816       7.96373407       3.92385271       0.46585652       0.00053032      -0.00066836       0.00113965
Al       3.83587510       9.83653318       5.93429951      -2.31718687       0.00132266       0.00139248       0.00129986
Au       5.81208203       7.87978440       5.87644320       0.91716089      -0.00006993       0.00003882      -0.00009512
Al       5.86431237       9.84283391       3.90244837      -2.72881899       0.00018512       0.00054864      -0.00096401
Cu       3.90359486       7.82679305       7.81855927       3.45515132      -0.00104202      -0.00096846       0.00064398
Cu       3.90139957       9.92360533       9.98818309       2.43895207       0.00042930      -0.00149432       0.00034158
Au       5.71113405       7.99692339       9.83443906      -0.03737238       0.00148235      -0.00044341      -0.00060116
Al       5.76886450       9.88057319       7.91221000      -2.53285768      -0.00014167       0.00115755      -0.00088837
Au       3.86143939       7.93688008      11.90512159      -0.71543604       0.00064035       0.00681213       0.00394458
Al       3.86183942       9.90522814      13.73461264      -3.44962057       0.00221721      -0.00316227      -0.00067129
Cu       5.83996834       7.88053289      13.74879341       2.73504155      -0.00027639       0.00274914       0.00034598
Cu       5.77868847       9.88793944      11.76628081       2.19701069      -0.00209919      -0.00276699       0.00367042
Al       3.84692014      13.82536690       1.93393081      -3.02690626      -0.00057079      -0.00327673      -0.00325013
Au       5.77219374      11.77344342       1.90797626       0.56689533      -0.00275169       0.00170547       0.00330420
Au       5.72500064      13.81539676      -0.02173156      -0.24374517      -0.00218033       0.00492410      -0.00049541
Au       3.83921970      11.74789415       3.91741019       0.34629974       0.00430326       0.00051673      -0.00117117
Al       3.82278162      13.77775957       5.90725952      -2.22420414      -0.00011006       0.00094556      -0.00101483
Au       5.92973241      11.83433468       5.86410422       0.75645511      -0.00271603       0.00022199      -0.00268872
Au       5.89650702      13.73115709       3.88221524       0.72499990       0.00120973      -0.00327420       0.00087316
Al       3.90306251      11.85121924       7.90988498      -2.23885454       0.00296527       0.00046942      -0.00119259
Cu       3.83983984      13.82555584       9.86492834       2.19714792      -0.00020598      -0.00245915      -0.00025326
Cu       5.74241029      11.75832131       9.94957444       2.35509181      -0.00063442      -0.00054533      -0.00034532
Al       5.80136726      13.75420690       7.95305727      -2.40810833       0.00113978       0.00036303       0.00188888
Cu       3.88319533      11.88468158      11.71014896       1.81747727       0.00198825      -0.00138550       0.00169969
Cu       3.80334372      13.87822008      13.64271812       1.87178942       0.00057074       0.00186756       0.00030647
Au       5.72018896      11.91904165      13.67966794      -0.51695237      -0.00198568      -0.00041273       0.00151196
Au       5.70488087      13.82150024      11.69408583      -1.73163922       0.00060335      -0.00055714      -0.00014913
Cu       3.79910411      15.70746348      -0.00417419       2.15340648      -0.00110247      -0.00132207       0.00022685
Cu       3.86835417      17.55482262       1.94258670       2.42718195      -0.00185911       0.00457898      -0.00034080
Cu       5.81708277      15.76549163       1.96839917       2.88094088       0.00159931      -0.00158487      -0.00014364
Au       5.78155558      17.53015673       0.04938356      -0.55788529       0.00166511       0.00055943      -0.00126667
Al       3.86206737      15.75532480       3.93750465      -2.69221182      -0.00105363       0.00031832       0.00035645
Cu       3.91705300      17.67971134       5.92788741       2.88084270       0.00171773       0.00020749      -0.00111582
Al       5.82326810      15.67773064       5.83832234      -2.31768745      -0.00014647       0.00236908       0.00026469
Cu       5.78015757      17.68131901       3.91241592       2.60397509       0.00094860       0.00167054       0.00013505
Au       3.82622880      15.71264728       7.87158860      -1.00884521       0.00283991      -0.00026667      -0.00139579
Cu       3.82214951      17.57892078       9.81190369       2.19447930       0.00075169       0.00055371       0.00149955
Cu       5.69407679      15.76034055       9.86443683       2.22000421      -0.00011129      -0.00208245      -0.00006598
Au       5.80357457      17.63059283       7.84602971      -0.27008101      -0.00072639       0.00014129      -0.00182309
Cu       3.80185882      15.72150785      11.69236675       1.54632030      -0.00053690       0.00008989       0.00181121
Au       3.81373987      17.53707609      13.61843351      -1.15199808      -0.00162825      -0.00038087       0.00082288
Al       5.78437329      15.65582967      13.66989758      -3.83554960       0.00199961      -0.00272709       0.00386011
Cu       5.79094285      17.51512145      11.71720196       2.49600020      -0.00128969       0.00162066      -0.00110990
Au       7.82502313      -0.03530732       0.00695087       0.15904775       0.00073732       0.00105400       0.00097995
Au       7.76342674       1.88160525       1.99439634      -0.44025127       0.00085361       0.00017467       0.00037811
Cu       9.76747069       0.04253719       1.94410531       2.32331013       0.00128381       0.00077709      -0.00016462
Cu       9.78763488       1.85691060       0.06211133       2.57866196       0.00150395      -0.00008309      -0.00125765
Cu       7.74859081       0.02776068       3.92219351       2.23073776       0.00030525      -0.00111049       0.00149688
Cu       7.75360662       1.87247541       5.78047001       2.50807160       0.00114305       0.00035592       0.00031105
Al       9.78448090      -0.05127251       5.81795051      -2.56034066       0.00153089      -0.00004406       0.00047158
Au       9.76484538       1.87181578       3.85277929      -0.65705032       0.00079113      -0.00116958       0.00030886
Al       7.82906023      -0.06175783       7.84230072      -2.28566886      -0.00110908      -0.00010597       0.00188892
Cu       7.83975498       1.94340516       9.79413987       3.44358035       0.00182165       0.00087786      -0.00087984
Al       9.80462089      -0.04981821       9.82272941      -1.74989897       0.00154262      -0.00045846      -0.00062233
Au       9.76769223       1.93087928       7.79564457       0.76928092       0.00114871       0.00091792      -0.00025357
Au       7.80547019       0.03883626      11.72354591       0.06162459       0.00136392       0.00167690       0.00072675
Au       7.74961134       1.99285559      13.73080332       0.02572526       0.00095166       0.00029029      -0.00047802
Au       9.85116424       0.03967466      13.76548983       0.09828232       0.00074573       0.00121648      -0.00055389
Au       9.84314112       2.03105258      11.76998376       0.73162444       0.00122440       0.00106586      -0.00111443
Al       7.72265519       3.91587372       0.07172317      -2.36556566       0.00148523      -0.00121006       0.00060810
Al       7.74856062       5.92139302       1.98222387      -2.51487549       0.00033589      -0.00020496       0.00034064
Al       9.75643791       3.90125395       1.91214587      -2.25098155       0.00144412      -0.00005164       0.00134348
Au       9.74927690       6.07575862       0.06821230       0.64801243       0.00176245      -0.00133479       0.00010961
Au       7.73608526       3.84009155       3.92499033       0.01537530       0.00044847      -0.00023439       0.00032969
Au       7.84037126       5.97609968       5.85584038       0.33232026       0.00080573       0.00037376       0.00101529
Au       9.79771235       3.91033550       5.80566844      -0.28780557       0.00157345       0.00063178       0.00033075
Au       9.78234172       5.96546959       3.89967964      -0.48345945       0.00085097       0.00017364       0.00101100
Au       7.80944413       3.84779314       7.77686135       0.74063915       0.00131323       0.00008145      -0.00012731
Al       7.80023488       5.90331712       9.78380721      -1.29628840       0.00095865      -0.00088416      -0.00059166
Al       9.81633261       3.93315436       9.75920663      -2.25153620       0.00242408      -0.00093911       0.00003819
Au       9.87493084       5.95598306       7.74383660       0.63256770       0.00146866       0.00015981       0.00030796
Al       7.77187317       3.91625367      11.75004418      -2.34753470       0.00095285       0.00017771      -0.00228563
Au       7.76223826       5.94013866      13.73653292       0.19515466       0.00194299      -0.00237000       0.00062177
Au       9.78712318       3.92090367      13.84477468       0.53092162       0.00089607      -0.00128878      -0.00112865
Au       9.82133109       5.84212422      11.77941850       1.36973067       0.00172868      -0.00101269      -0.00224032
Cu       7.71206677       7.88375322      -0.01768116       2.96287884      -0.00101564      -0.00171569       0.00030271
Al       7.82561422       9.85278999       1.99004644      -3.22075483       0.00126658      -0.00161615      -0.00151782
Cu       9.77305671       7.88907302       1.99263000       2.92654263       0.00090137      -0.00131130       0.00099517
Au       9.72240265       9.76136317       0.04656367      -0.84835099       0.00076490      -0.00028567      -0.00000255
Cu       7.87857298       7.87061413       3.95089658       3.08744629       0.00060794      -0.00002325      -0.00010937
Au       7.84764837       9.77997970       5.84731309       0.39440156       0.00079779      -0.00031096       0.00066904
Cu       9.83462218       7.85022593       5.80018285       2.99348528      -0.00006832      -0.00008853       0.00035290
Au       9.78617771       9.78303112       3.90915094      -0.88311174      -0.00065870      -0.00124606       0.00106732
Al       7.80716592       7.93419263       7.92443287      -1.87380372       0.00102263      -0.00007699       0.00093375
Cu       7.71376849       9.93367376       9.92190712       3.03343996       0.00061392      -0.00107040      -0.00099795
Al       9.85609308       7.89169938       9.81388241      -1.76594887       0.00028538      -0.00083874      -0.00138415
Al       9.84353150       9.75682577       7.84848547      -2.20489481      -0.00060233       0.00006216       0.00053874
Au       7.73028464       7.94952905      11.71893164       0.14886327      -0.00013239       0.00069579       0.00209684
Au       7.72151550       9.84185542      13.70299968      -0.56138329      -0.00102806      -0.00329397      -0.00105301
Al       9.77838596       7.89136304      13.68819483      -2.63671920       0.00081126      -0.00135636      -0.00010164
Au       9.80750854       9.91084937      11.73746604       0.53425712       0.00095848      -0.00254168       0.00050665
Au       7.84255321      11.86439008      -0.05636717      -0.80039893       0.00760180      -0.00039481       0.00017109
Al       7.83755590      13.70052286       1.95093157      -2.86900977       0.00182660       0.00110963      -0.00090430
Cu       9.82674763      11.78368326       1.98641440       2.67941621      -0.00107655      -0.00065499       0.00013407
Cu       9.75121142      13.67965690      -0.05887477       2.59735275      -0.00231847       0.00016184      -0.00117474
Cu       7.85830270      11.81443523       3.94204820       3.05883698      -0.00146836      -0.00034755      -0.00143251
Cu       7.85699254      13.66533764       5.87954017       3.30584401      -0.00023864       0.00098441      -0.00085467
Al       9.80356545      11.74023404       5.91353620      -2.72061009      -0.00019147       0.00000909      -0.00007697
Au       9.81089742      13.65296070       3.90467116      -0.04400611      -0.00080096       0.00090966       0.00085630
Au       7.77211828      11.77090008       7.94793264       0.50096601      -0.00145697      -0.00121282       0.00086280
Al       7.74994862      13.79819446       9.85822865      -2.32419945      -0.00157525      -0.00168685      -0.00060650
Au       9.85457020      11.79844688       9.77311048       0.50609030      -0.00033572      -0.00047690      -0.00073690
Au       9.82924356      13.78106976       7.82596470       0.48630418      -0.00060011      -0.00120812       0.00088668
Al       7.75946142      11.85728773      11.80097734      -3.09144522      -0.00005497       0.00102401      -0.00011981
Cu       7.81204315      13.76555760      13.75454997       2.55787464      -0.00001394       0.00402877       0.00032755
Cu       9.75411492      11.74147747      13.79346349       3.06461394      -0.00126930      -0.00022770       0.00168485
Al       9.76636564      13.72560610      11.82562801      -2.04409576      -0.00190099       0.00122963       0.00155423
Au       7.83629340      15.61613016       0.01559157      -0.21595150      -0.00124952       0.00051929      -0.00032053
Au       7.79885585      17.67408648       2.08582390      -0.53034956      -0.00031467       0.00148019       0.00148341
Al       9.82666386      15.66357437       1.99962593      -2.23122963       0.00113492       0.00161804       0.00080141
Al       9.77030920      17.62485733       0.02794031      -2.51355228       0.00083389       0.00130982       0.00104378
Al       7.81784482      15.67162497       3.91157752      -2.33432416      -0.00074849       0.00215612      -0.00049077
Au       7.74016271      17.71660673       5.72105572       0.08535333       0.00153335      -0.00045803       0.00068739
Al       9.80779357      15.72313627       5.77538743      -2.16058487      -0.00047960       0.00011165       0.00179467
Cu       9.79116224      17.76280759       3.80895142       3.09895923       0.00013340       0.00031540       0.00043183
Au       7.77186700      15.66504341       7.77700176       1.06644421      -0.00123664      -0.00184975       0.00042676
Au       7.73762938      17.47045322       9.92395779       0.24618570       0.00043113      -0.00009592      -0.00137454
Al       9.83439494      15.61187474       9.85482881      -1.95414493      -0.00089983       0.00038168      -0.00022435
Al       9.79587460      17.54990247       7.82885970      -1.54690449      -0.00092363      -0.00020229       0.00034362
Cu       7.73044568      15.61823151      11.83424211       2.95204549      -0.00062917      -0.00064093       0.00204216
Au       7.80249488      17.55042247      13.63071516      -0.21603279      -0.00011194       0.00001485       0.00034940
Cu       9.66562179      15.60273120      13.75853064       3.05147283      -0.00113494       0.00131840      -0.00234919
Al       9.85752905      17.53967951      11.82421774      -2.05499202      -0.00020899       0.00014580      -0.00018239
Cu      11.71388307       0.11831633       0.04391828       2.52836191       0.00146624       0.00004486      -0.00027592
Cu      11.77442033       1.90296118       1.91522288       2.32217709       0.00076224      -0.00007558       0.00085982