399
Lattice="19.59262691714357 -0.0029401591670048664 0.00043227724696582155 -0.0029405439160256983 19.594541571232078 0.002722427805357169 0.0003459403246241731 0.002177382872289726 15.670877927394494" Properties=species:S:1:pos:R:3:energies:R:1:forces:R:3 energy=11.907958850123222 free_energy=11.907958850123222 stress="0.0005037945561860353 -1.4063255854450608e-05 -9.399250867526027e-05 -1.4063255854450608e-05 -4.3974876196994594e-05 -9.454531257784463e-05 -9.399250867526027e-05 -9.454531257784463e-05 0.0007750608239969355" pbc="T T T"
Au      -0.02481595       0.04275731       0.06744684      -1.19733324      -0.00322628      -0.00085503       0.00093497
Cu      -0.09384037       1.89311095       1.90127266       2.73248766      -0.00187655       0.00022721       0.00009137
Cu       2.03471096      -0.04709889       1.95149281       3.21433960      -0.00177557      -0.00051944       0.00146129
Al       1.95504802       1.93281050       0.11964559      -3.31365778      -0.00010188       0.00084540       0.00116598
Al      -0.06882914      -0.02216244       3.85705312      -2.46613453      -0.00157223      -0.00099305      -0.00080920
Al      -0.07904793       1.97294996       5.79603278      -1.88339037      -0.00095950       0.00054901       0.00048789
Al       1.90491736      -0.00823526       5.82773051      -2.18993814      -0.00084515       0.00043646      -0.00138144
Al       1.90401617       1.88969322       3.78585916      -2.80771491      -0.00097271      -0.00132481       0.00042623
Al      -0.07039760      -0.02383286       7.75668021      -2.49070587       0.00144918       0.00032460      -0.00014600
Au       0.00181531       1.92570835       9.75841989      -0.02580056      -0.00042712       0.00078796      -0.00088491
Cu       1.87471815      -0.11143279       9.80783389       2.18965789      -0.00031802       0.00026069       0.00010412
Au       1.95072232       1.90175486       7.87366715      -0.58870418       0.00226249       0.00095616      -0.00162434
Cu       0.02520058      -0.11738620      11.73942948       1.99224889       0.00008897      -0.00065844      -0.00055037
Cu       0.00019233       1.88853236      13.78644144       2.56355131       0.00013021      -0.00042181      -0.00156501
Au       1.87153600      -0.03836680      13.67492803      -0.28038004       0.00049672      -0.00039751       0.00069200
Au       1.89521066       1.86920417      11.69326489      -0.87472077      -0.00117857       0.00033211      -0.00143223
Cu       0.02142307       3.83915750       0.09693627       2.22381345      -0.00118855       0.00052364       0.00059775
Cu      -0.08806273       5.78557131       1.85815398       2.74959953      -0.00105872      -0.00017085       0.00035422
Cu       1.87913004       3.84301143       1.93532751       2.87223525      -0.00079859       0.00014635       0.00062997
Au       1.93608556       5.77681937       0.07590101      -0.35037170       0.00017222       0.00002547      -0.00002684
Al      -0.05770874       3.85881632       3.80136880      -2.51930760      -0.00077431       0.00164018       0.00074359
Au       0.00665117       5.76108366       5.91579562       0.13846114      -0.00006437       0.00041781      -0.00064411
Au       2.02408086       3.77644202       5.80777959       0.33418247      -0.00013566       0.00055510       0.00028460
Al       1.91075638       5.76500029       3.82440155      -2.29428277      -0.00044259       0.00018468       0.00000549
Cu       0.11034656       3.86698436       7.82052815       3.31307251      -0.00070450       0.00136784      -0.00073311
Au       0.05576339       5.82706539       9.71276210       0.58444473       0.00110063       0.00028993      -0.00088044
Cu       1.96012602       3.83163303       9.79936613       2.85889378       0.00066964      -0.00001709      -0.00026049
Al       1.98130981       5.85419056       7.82421313      -3.21806783       0.00068851       0.00040840      -0.00054133
Au       0.01103839       3.90377091      11.77656085       0.30175130       0.00055517       0.00007195      -0.00145998
Au      -0.03137541       5.84611917      13.84490329       0.38955887      -0.00057223       0.00015327      -0.00082816
Au       1.91752367       3.83293479      13.78607160       0.18960746      -0.00107892      -0.00001115       0.00060086
Al       1.98375437       5.86343433      11.81727696      -2.75929662      -0.00010292       0.00089970       0.00113439
Al       0.01312508       7.82490320       0.06628689      -2.95382269       0.00044015       0.00037020      -0.00123898
Au       0.04842353       9.79046176       2.05860956      -0.06296910       0.00112219       0.00073939      -0.00111811
Al       1.94470324       7.82981238       1.94747324      -2.39487738      -0.00007264       0.00108285      -0.00070581
Cu       1.98077222       9.84774298       0.01868549       3.01605511       0.00012345      -0.00024368      -0.00064690
Al       0.06187228       7.76276697       3.95503576      -2.59005480       0.00052665       0.00107076      -0.00088428
Al       0.05612427       9.75014529       5.92951186      -2.71007595       0.00055887       0.00069373       0.00044607
Cu       1.95965444       7.80390004       5.93229651       3.14465166       0.00094818       0.00120935      -0.00009520
Cu       1.92902964       9.90350559       3.93819333       3.07344033       0.00016115       0.00069252      -0.00123331
Cu       0.00229096       7.72877234       7.76891090       3.56949942       0.00048974       0.00132718       0.00066798
Al       0.01557526       9.79933676       9.71218340      -2.23285994       0.00003729       0.00122466       0.00088068
Al       2.01725062       7.90063691       9.78624074      -2.20870334       0.00044033       0.00071349       0.00169549
Al       1.99638437       9.79007002       7.89500484      -2.12131152       0.00039312       0.00063142       0.00013837
Al       0.09183885       7.85192116      11.74376053      -2.15430110       0.00195168       0.00085192       0.00060011
Au       0.17564344       9.79709781      13.68948827       0.01483909       0.00216655       0.00054196       0.00006058
Cu       1.96592664       7.81179781      13.78660050       3.07209165       0.00084189       0.00029280       0.00015501
Cu       2.02238848       9.93061699      11.72450048       2.93518929       0.00091952      -0.00018742       0.00101871
Al       0.10282659      11.86043981      -0.02747732      -3.02786443       0.00117573       0.00024552      -0.00050904
Cu       0.07899380      13.79234999       2.02659844       2.85412033       0.00127752      -0.00009061      -0.00006512
Au       1.88758604      11.81099910       1.99842488      -1.06975277       0.00054044      -0.00047758      -0.00101029
Cu       1.99057977      13.84500960      -0.06344032       2.20008973      -0.00066757       0.00042188      -0.00018350
Cu       0.01592816      11.80745553       3.98336233       2.75671691       0.00025004      -0.00034116      -0.00073770
Au       0.01536667      13.82294787       6.07853059      -1.61462543      -0.00325248       0.00271690      -0.00052597
Au       1.86132290      11.80913877       5.94690736       0.06702343       0.00270623      -0.00144415      -0.00017466
Au       1.85435945      13.81695067       3.96622516      -0.41614659       0.00198935      -0.00159707      -0.00061559
Cu       0.03334643      11.89776537       7.89034082       3.24688540       0.00018107      -0.00182697      -0.00013992
Au      -0.05287325      13.79531931       9.69756329      -2.02296453       0.00218776       0.00148275      -0.00063277
Au       2.02208163      11.87210618       9.81750834      -1.42648420       0.00249986      -0.00147203       0.00044411
Cu       1.91891694      13.82690458       7.91782302       2.65041908       0.00094339      -0.00014123       0.00037517
Au       0.01389905      11.80474277      11.66257201      -0.45188429       0.00010982      -0.00002405       0.00237087
Au       0.03946111      13.83039712      13.59211964      -0.68343457       0.00019581       0.00060950       0.00025927
Au       2.02368744      11.89983763      13.60149278      -1.27550661      -0.00113538      -0.00017437      -0.00059358
Cu       2.03835923      13.79097490      11.72093297       1.98101284       0.00071890      -0.00061897       0.00122802
Au       0.06038662      15.61050036      -0.00251517      -0.52954322      -0.00068639      -0.00030932       0.00005939
Al      -0.01548630      17.68499244       1.99202697      -2.47426880      -0.00309810       0.00016607       0.00175836
Cu       1.90108570      15.66284750       1.92179648       2.70803700       0.00049264      -0.00026307      -0.00008283
Au       1.96347405      17.56982691       0.05633389      -1.24354791       0.00011688       0.00051808       0.00042888
Au      -0.00132425      15.79421526       3.97121166      -0.30373545      -0.00192416      -0.00100672       0.00024707
Cu      -0.09329301      17.59797462       5.88161738       2.87642685       0.00116251      -0.00101610      -0.00095452
Cu       1.85020431      15.77022883       5.99922770       2.62014926       0.00058328      -0.00049627       0.00091499
Al       1.96650361      17.65126369       3.93111591      -2.63704080      -0.00029422       0.00111882      -0.00034687
Cu       0.00709572      15.73870985       7.91205243       2.21617525       0.00133721      -0.00312589      -0.00005739
Cu      -0.00766428      17.60566291       9.82566515       2.15147723      -0.00003935       0.00061482       0.00039605
Au       1.93243601      15.71723136       9.84484734      -2.44624751       0.00180948      -0.00053271      -0.00270322
Au       1.84972814      17.64388444       7.84478203      -1.57395262       0.00126154      -0.00227481       0.00058503
Al      -0.07035916      15.70813378      11.67614112      -4.10915721      -0.00040188      -0.00017794      -0.00019981
Au      -0.01171298      17.58040981      13.65134905      -1.36480991      -0.00002079       0.00191237       0.00130130
Cu       1.98406732      15.65932714      13.65731294       1.87393500      -0.00032153      -0.00029531       0.00037138
Cu       1.90429094      17.62638880      11.69672367       2.00928957       0.00093323       0.00039427      -0.00020754
Au       3.86730125      -0.05042108       0.07706471       0.11343688       0.00112079      -0.00129879      -0.00027223
Cu       3.90847000       1.93370380       2.06514798       2.58874219      -0.00011128       0.00050548       0.00023990
Al       5.80460883      -0.03628531       2.00329138      -3.47727042       0.00174594       0.00119654      -0.00127447
Al       5.79745800       1.94401607       0.03731703      -2.29953688       0.00068085       0.00044839       0.00119666
Au       3.92813069      -0.03324299       3.91647864      -1.42961444      -0.00029215      -0.00012593       0.00040050
Cu       3.94331644       1.85750657       5.84121707       2.67455705       0.00093031      -0.00026647       0.00045170
Cu       5.80824245      -0.01614801       5.79054559       1.88240122       0.00138158       0.00055011       0.00064091
Cu       5.81215363       1.88039303       3.95675228       1.75521546      -0.00013581      -0.00004653      -0.00076018
Au       3.85918277      -0.03902749       7.87025243      -0.97949639       0.00057217       0.00087206      -0.00026211
Cu       3.82619396       1.92766892       9.79905348       2.86560230      -0.00075069       0.00037470      -0.00013312
Al       5.83382354       0.00340852       9.84662186      -2.96579320       0.00030187       0.00075256       0.00030900
Au       5.87419258       1.84318229       7.75958539      -0.28781595       0.00057062      -0.00040223       0.00011873
Al       3.87257163      -0.06086966      11.65709717      -3.29592661      -0.00081988       0.00023581       0.00045802
Al       3.92091013       1.90465382      13.70683204      -2.30993254      -0.00078294       0.00044397       0.00022671
Au       5.82097315      -0.09899311      13.64166057       0.26634578      -0.00102953       0.00019025       0.00120751
Cu       5.87052283       1.95570934      11.77985119       3.12760466      -0.00140833      -0.00004998       0.00058544
Al       3.94118032       3.85185852       0.07541729      -2.53500320      -0.00079980       0.00070253      -0.00059070
Al       3.91561779       5.77377979       2.01840352      -2.26547778       0.00055777       0.00039706      -0.00073347
Cu       5.79062049       3.73759479       2.12290276       2.94722033       0.00072386       0.00006767      -0.00009052
Au       5.79095485       5.90044728      -0.05196192      -0.21089202      -0.00061148      -0.00011940       0.00021352
Cu       3.89256903       3.72094979       3.87512125       2.40741060       0.00022285       0.00005088      -0.00057683
Au       3.83231060       5.89574413       5.82802232       0.52272056      -0.00123584      -0.00031347       0.00008633
Al       5.78244160       3.86372118       5.82517268      -3.01409657       0.00133525       0.00124735      -0.00018601
Al       5.81450279       5.87330888       3.90611954      -2.36379808       0.00016798      -0.00087825      -0.00136662
Au       3.89549345       3.80423209       7.86958220       0.12476181      -0.00194203      -0.00079201      -0.00087596
Au       3.87518920       5.85913399       9.79687454       0.99872014      -0.00041316      -0.00003252       0.00022173
Al       5.87727414       3.80871253       9.80063551      -2.35763372      -0.00005610      -0.00007275      -0.00022347
Al       5.84279664       5.87511315       7.84269789      -2.04807395       0.00042713      -0.00098267       0.00014961
Au       3.91245765       3.82783416      11.75822481      -0.30327014      -0.00056564       0.00079629       0.00050875
Cu       3.87296868       5.88043077      13.76812066       2.75903640      -0.00021472       0.00016940      -0.00005694
Cu       5.79896466       3.95045312      13.67900995       3.26766161      -0.00071562       0.00018893       0.00015662
Al       5.79726606       5.90056523      11.78874800      -2.60547761      -0.00093652       0.00070875       0.00045772
Au       3.83637186       7.87325939      -0.06172863      -0.78008157      -0.00024117       0.00024503      -0.00143166
Cu       3.81341194       9.86579608       1.91799093       2.79334747      -0.00028146      -0.00045884      -0.00158611
Au       5.80234342       7.90105724       1.96540025       0.53955174      -0.00046576      -0.00013441      -0.00072816
Au       5.81847160       9.82774501      -0.01460570      -0.32388704      -0.00082600       0.00011295      -0.00098249
Au       3.75666780       7.96607374       3.92541962       0.48678372      -0.00012595      -0.00002700      -0.00098577
Al       3.84063118       9.83913781       5.93903895      -2.31116040       0.00005556       0.00025243      -0.00039323
Au       5.81651450       7.86967001       5.87984161       0.91515757       0.00078018       0.00074434      -0.00029913
Al       5.86567269       9.82960398       3.91343215      -2.71377476       0.00018359      -0.00074297      -0.00039472
Cu       3.90596825       7.82015883       7.81611479       3.44446490      -0.00001332       0.00076167       0.00082707
Cu       3.90606409       9.91613962       9.98163247       2.41789454       0.00005729       0.00038238       0.00119001
Au       5.72240198       7.98636933       9.82275107      -0.03406597      -0.00109543       0.00046650       0.00076087
Al       5.77629810       9.87775173       7.90856111      -2.53499428      -0.00082700      -0.00062452       0.00108291
Au       3.86417210       7.91816372      11.88092910      -0.66408278      -0.00057643       0.00030137       0.00136070
Al       3.86807690       9.88514244      13.67712696      -3.71728299      -0.00033309      -0.00004794      -0.00052731
Cu       5.84729706       7.87846933      13.73653446       2.71799042      -0.00085860      -0.00030690      -0.00023612
Cu       5.79879574       9.87645145      11.74761598       2.19346028      -0.00038945       0.00007631       0.00093814
Au       3.80219031      11.85061306       0.01492601      -0.61015813       0.00136767      -0.00069812      -0.00022487
Al       3.85060097      13.85759549       1.98980911      -3.25880503       0.00052501      -0.00063641      -0.00043004
Au       5.84290441      11.77711209       1.96291781       0.49435283      -0.00030117      -0.00049085      -0.00154546
Au       5.77059827      13.84591897       0.00828060      -0.28375933       0.00009733      -0.00076252      -0.00058501
Au       3.84570217      11.75707206       3.92594853       0.35585903       0.00008208      -0.00090974      -0.00038725
Al       3.83068129      13.78181497       5.91213435      -2.21394426       0.00027612      -0.00108224       0.00000074
Au       5.93847118      11.83610165       5.86292526       0.75587982      -0.00026264      -0.00100543       0.00028225
Au       5.91683272      13.75346522       3.90322751       0.71862481       0.00086231      -0.00034186       0.00075383
Al       3.90660018      11.85296566       7.91295210      -2.23869164      -0.00014697      -0.00075756       0.00108731
Cu       3.83584396      13.83008828       9.85498031       2.20179269       0.00014198      -0.00056647       0.00098526
Cu       5.75542999      11.75469891       9.94184554       2.36271997       0.00030351      -0.00072213       0.00168130
Al       5.80782518      13.75906102       7.95207454      -2.40866458       0.00022871      -0.00036712       0.00055805
Cu       3.89507786      11.88264408      11.69195609       1.82792608       0.00002831      -0.00107168       0.00101223
Cu       3.79989355      13.83031801      13.66902858       1.90171675      -0.00018743      -0.00012892       0.00061652
Au       5.76719753      11.92143352      13.65321654      -0.56497664      -0.00146883      -0.00179473       0.00066439
Au       5.70478447      13.82608637      11.67796829      -1.70730181       0.00021289      -0.00032884       0.00070114
Cu       3.79298571      15.68731410       0.00064479       2.12285371      -0.00060996       0.00002103      -0.00060159
Cu       3.86662093      17.54976338       1.94273655       2.42481522      -0.00069977      -0.00003164      -0.00036421
Cu       5.83308515      15.78313850       1.99202005       2.88511902       0.00012804       0.00015500      -0.00024109
Au       5.78033263      17.51879473       0.04873754      -0.55455374      -0.00101424       0.00192900      -0.00083001
Al       3.86389391      15.77719418       3.96121602      -2.68129428       0.00104634      -0.00100439      -0.00052477
Cu       3.91818577      17.69135421       5.93311613       2.90330142       0.00002612      -0.00078310       0.00045648
Al       5.82904664      15.69281586       5.84683208      -2.31930647       0.00224938      -0.00099381       0.00063298
Cu       5.78929366      17.68997522       3.91832028       2.60688693       0.00139438       0.00011852      -0.00037522
Au       3.82764455      15.71852969       7.86981602      -1.00777963      -0.00200300       0.00045210       0.00188193
Cu       3.82346386      17.58103280       9.81580226       2.19223801      -0.00073991      -0.00110248      -0.00022130
Cu       5.69446623      15.76500272       9.86079878       2.23389809      -0.00036661      -0.00033308       0.00077489
Au       5.80556121      17.63759315       7.85086016      -0.27090641       0.00146412      -0.00068296       0.00061819
Cu       3.79882776      15.71727820      11.69350981       1.54778633       0.00001089      -0.00147313      -0.00012953
Au       3.81063234      17.53100566      13.62158477      -1.13561916       0.00047034       0.00154018       0.00117387
Al       5.77771620      15.64248904      13.66685994      -3.81025147       0.00032076      -0.00064687       0.00005740
Cu       5.79016472      17.51262105      11.71969297       2.48795661      -0.00066448      -0.00015142       0.00023014
Au       7.82696115      -0.03938023       0.00747480       0.17222319      -0.00058537       0.00120814       0.00101416
Au       7.77255210       1.87495201       1.99736508      -0.44590227      -0.00103158      -0.00242329      -0.00378777
Cu       9.78664377       0.04442101       1.94739312       2.31911490       0.00059444       0.00180286       0.00096184
Cu       9.78995922       1.85356235       0.06204757       2.58302016       0.00066734      -0.00007255      -0.00022562
Cu       7.75096520       0.02997977       3.92507932       2.24308486      -0.00023790       0.00032309      -0.00026536
Cu       7.75765329       1.86858170       5.78056462       2.51827228      -0.00120167       0.00042186      -0.00062032
Al       9.78309721      -0.04668287       5.82075350      -2.55874675       0.00175763       0.00311638      -0.00027063
Au       9.78380364       1.85753160       3.85636710      -0.66817281       0.00408355      -0.00209227       0.00107597
Al       7.83172492      -0.05698090       7.84859921      -2.29220895       0.00044747       0.00036305       0.00097971
Cu       7.84885907       1.94179974       9.79083923       3.45273429      -0.00020827      -0.00011328      -0.00015147
Al       9.81506330      -0.04722186       9.81775507      -1.74911063      -0.00050605       0.00091607      -0.00112298
Au       9.78855848       1.92175685       7.78741736       0.79190274       0.00322279      -0.00403166       0.00023953
Au       7.80894526       0.04115071      11.72317999       0.06311808       0.00042299      -0.00021727      -0.00147607
Au       7.75068458       1.99149768      13.73310281       0.02229207       0.00050735      -0.00017616      -0.00050033
Au       9.85146782       0.04049430      13.76373971       0.10089421      -0.00020956      -0.00011728       0.00016323
Au       9.84763498       2.02990627      11.76773474       0.72988906       0.00109374      -0.00005553      -0.00090724
Al       7.72249297       3.91577202       0.07594087      -2.36442437      -0.00052734      -0.00035990      -0.00041560
Al       7.75049192       5.92154549       1.98375978      -2.51227932      -0.00036712       0.00021040      -0.00006140
Al       9.75957605       3.89362377       1.91594824      -2.25395301       0.00119117       0.00183630      -0.00219487
Au       9.75401150       6.06895075       0.06998384       0.64417689       0.00041526      -0.00051728      -0.00070716
Au       7.74609239       3.83059788       3.92651365       0.01060647      -0.00077898       0.00379219       0.00100210
Au       7.84863908       5.96088746       5.85573762       0.33378702       0.00046342      -0.00088520      -0.00041716
Au       9.81878303       3.88447008       5.80179090      -0.28790526       0.00000121       0.00405202      -0.00245161
Au       9.78823137       5.95459724       3.90320620      -0.48656198       0.00016617      -0.00028192       0.00026237
Au       7.82150774       3.83476975       7.77051310       0.72326050      -0.00202498       0.00251515       0.00070967
Al       7.80988570       5.89085880       9.77586902      -1.29658053      -0.00116550       0.00097761      -0.00030230
Al       9.82681457       3.92317247       9.75313750      -2.25755228      -0.00013064       0.00063762       0.00151170
Au       9.88658518       5.93953979       7.73727279       0.61914860      -0.00007524       0.00017430      -0.00075966
Al       7.77707776       3.91072221      11.74690792      -2.34804550      -0.00014719       0.00001655       0.00061353
Au       7.76657403       5.93458963      13.73493603       0.18823087       0.00035035      -0.00099546       0.00007744
Au       9.78740858       3.91734382      13.84436961       0.53536157       0.00044574      -0.00055586       0.00041383
Au       9.82798068       5.83274552      11.77349938       1.36643583      -0.00000410      -0.00051383       0.00054914
Cu       7.71983423       7.87428781      -0.02183790       2.96979737      -0.00090035      -0.00019704      -0.00037362
Al       7.84160898       9.82697953       1.99543949      -3.22588949      -0.00038368      -0.00021045      -0.00114623
Cu       9.78507460       7.87927823       1.99641152       2.93815900      -0.00044940      -0.00091303      -0.00046221
Au       9.72880704       9.75428572       0.04431729      -0.83097194      -0.00030562      -0.00032212      -0.00021537
Cu       7.88468218       7.86094784       3.95834773       3.08881322      -0.00032344      -0.00012463      -0.00081942
Au       7.85151161       9.77584762       5.85052635       0.40242034       0.00007055      -0.00049991       0.00041137
Cu       9.83869924       7.84274143       5.80241559       2.99312568      -0.00029911       0.00008236      -0.00061950
Au       9.79154349       9.77698371       3.91499509      -0.87541623       0.00114542      -0.00022621      -0.00127443
Al       7.81768323       7.92187464       7.91833236      -1.88033596      -0.00004800       0.00014382       0.00046891
Cu       7.72651570       9.92343986       9.91260577       3.03360759       0.00015182       0.00032298       0.00167600
Al       9.86461883       7.87939786       9.80697083      -1.76628555      -0.00005718      -0.00031763      -0.00034010
Al       9.84582859       9.75469231       7.85004492      -2.21102729       0.00065344      -0.00060217       0.00064326
Au       7.74159325       7.93906941      11.71168919       0.14289888      -0.00077221      -0.00041965       0.00008732
Au       7.74260084       9.83640677      13.69240420      -0.55229766      -0.00108121      -0.00052721       0.00038289
Al       9.78746449       7.88139592      13.68519564      -2.63574025      -0.00086406       0.00001347      -0.00039120
Au       9.81975120       9.90215243      11.72890264       0.53240276      -0.00060490       0.00015801       0.00126381
Au       7.86602699      11.86418422      -0.05009779      -0.82594518      -0.00132272      -0.00102638      -0.00015801
Al       7.86942868      13.72348986       1.96120516      -2.87833853      -0.00075209      -0.00037920      -0.00061550
Cu       9.82958280      11.78189445       1.99243647       2.67019993       0.00011451      -0.00112182      -0.00046129
Cu       9.76411970      13.68956131      -0.05654952       2.60262724      -0.00007136      -0.00020413      -0.00069447
Cu       7.87387677      11.81492850       3.94845923       3.05501069       0.00010365      -0.00066876       0.00053036
Cu       7.86854885      13.67318236       5.88548395       3.30671355      -0.00002239       0.00027134       0.00020765
Al       9.80738558      11.73840262       5.91660015      -2.72687213       0.00031666       0.00024105       0.00009274
Au       9.82326504      13.66113993       3.91393272      -0.03070778      -0.00050189      -0.00047463       0.00004737
Au       7.77730926      11.77252809       7.94895096       0.49385697      -0.00034441      -0.00093395       0.00029222
Al       7.75843300      13.80702000       9.85228076      -2.31790037      -0.00076558      -0.00149517       0.00099003
Au       9.86299538      11.80062178       9.77089205       0.50992681      -0.00081008       0.00003019      -0.00024026
Au       9.83569731      13.78470288       7.82474215       0.47676105      -0.00049555      -0.00015147       0.00106182
Al       7.78384340      11.85934512      11.78051805      -3.06671891      -0.00026098      -0.00060905       0.00104773
Cu       7.83772060      13.77522181      13.75866301       2.51521503      -0.00152526      -0.00093437      -0.00008688
Cu       9.76254669      11.74333096      13.78888398       3.06094578      -0.00138538      -0.00004712       0.00008262
Al       9.77656629      13.73528738      11.82187407      -2.04237695      -0.00085088      -0.00013428      -0.00011325
Au       7.86631686      15.64036343       0.01936901      -0.19613886      -0.00009954       0.00030955       0.00016495
Au       7.81073761      17.68302828       2.09064787      -0.53715414       0.00097092       0.00007495       0.00052130
Al       9.84649452      15.68267389       2.01290825      -2.22870520      -0.00004883      -0.00083567      -0.00095736
Al       9.78663728      17.63924847       0.03293079      -2.52586498       0.00033147       0.00000210       0.00052919
Al       7.83909678      15.68804072       3.92566532      -2.33709249       0.00102915       0.00034817      -0.00046975
Au       7.74684620      17.72576676       5.72917197       0.09613058      -0.00067755      -0.00128674       0.00053443
Al       9.83300725      15.74140567       5.78229019      -2.16842038      -0.00105950      -0.00130486      -0.00019383
Cu       9.80693330      17.78137209       3.81422837       3.09697746      -0.00150644      -0.00019998       0.00002350
Au       7.78101208      15.67355204       7.77536117       1.06593657       0.00061758      -0.00018320       0.00119684
Au       7.73916706      17.47334567       9.92597740       0.24772138       0.00060400      -0.00012235       0.00041005
Al       9.84033664      15.61963896       9.85047155      -1.95284565       0.00022782       0.00053712      -0.00012837
Al       9.80314529      17.56204330       7.83028542      -1.54425074      -0.00120831      -0.00043281      -0.00132571
Cu       7.73362227      15.61847402      11.83504168       2.94951124      -0.00134709       0.00063168       0.00038090
Au       7.80331380      17.54971320      13.62850218      -0.22932090      -0.00074304       0.00027496       0.00038150
Cu       9.68255899      15.61574248      13.75523583       3.06370670      -0.00060903       0.00024380       0.00085751
Al       9.85904124      17.54396362      11.81944226      -2.06009762       0.00040820       0.00063441      -0.00044297
Cu      11.72044522       0.11860771       0.03885300       2.54532108       0.00086792       0.00074086       0.00025376