399
Lattice="19.59262691714357 -0.0029401591670048664 0.00043227724696582155 -0.0029405439160256983 19.594541571232078 0.002722427805357169 0.0003459403246241731 0.002177382872289726 15.670877927394494" Properties=species:S:1:pos:R:3:energies:R:1:forces:R:3 energy=11.948212904546212 free_energy=11.948212904546212 stress="0.00042486455141167034 9.100863231406277e-05 -0.00011885775602266559 9.100863231406277e-05 -0.00014472217625933082 -0.0001351813435470971 -0.00011885775602266559 -0.0001351813435470971 0.0005997199466078343" pbc="T T T"
Au      -0.01849465       0.04261776       0.06341555      -1.22788430      -0.00149829      -0.00005281       0.00147034
Cu      -0.08685467       1.90041620       1.89390127       2.72531303       0.00081752      -0.00120197       0.00070456
Cu       2.03402179      -0.04668185       1.95198635       3.20759759       0.00085812      -0.00031071      -0.00132355
Al       1.95944846       1.93488623       0.11886082      -3.31815341      -0.00020969      -0.00103099       0.00058594
Al      -0.07773118      -0.02144972       3.85770466      -2.46260372       0.00278831      -0.00024651       0.00066020
Al      -0.08218321       1.97641258       5.79889191      -1.88261250       0.00147973      -0.00025444      -0.00060507
Al       1.90387721      -0.00740915       5.82636031      -2.18137917      -0.00046919      -0.00091386       0.00064565
Al       1.90382350       1.88804725       3.78667916      -2.80207355      -0.00090339       0.00042327      -0.00151801
Al      -0.07812399      -0.02122198       7.75356098      -2.47706359       0.00131669       0.00000324       0.00029140
Au       0.00479577       1.93121792       9.75926787      -0.02365223      -0.00055316      -0.00102220      -0.00016601
Cu       1.87299673      -0.11024073       9.80756115       2.18600045       0.00040371      -0.00034728      -0.00144984
Au       1.95152212       1.90115263       7.87305209      -0.58639489      -0.00169439       0.00025960      -0.00138849
Cu       0.03125619      -0.11699571      11.74709640       2.01143403       0.00079198      -0.00050443      -0.00165774
Cu       0.00681442       1.89240086      13.78778501       2.56603418      -0.00165430      -0.00046093      -0.00209591
Au       1.87673465      -0.03912064      13.67511902      -0.28103283       0.00119596       0.00212144      -0.00104895
Au       1.89651767       1.87038780      11.69364522      -0.87787891       0.00058454      -0.00071237       0.00089949
Cu       0.02443613       3.84349050       0.09242442       2.22931626       0.00025398      -0.00082605       0.00026364
Cu      -0.08660885       5.78786006       1.85706460       2.75211570      -0.00109849      -0.00032477      -0.00025355
Cu       1.88250689       3.84387667       1.93441959       2.87048210      -0.00186642       0.00060155       0.00014087
Au       1.93818557       5.77836235       0.07515277      -0.35285133      -0.00044987       0.00065383       0.00085817
Al      -0.05246605       3.86439670       3.80073658      -2.51542986      -0.00000321       0.00033358       0.00023796
Au       0.00571459       5.75994525       5.91646476       0.14288980      -0.00035509      -0.00047481      -0.00000879
Au       2.02687773       3.77594947       5.80874937       0.33684479      -0.00176192       0.00019560      -0.00311938
Al       1.91381975       5.76630163       3.82525501      -2.29060602      -0.00121576      -0.00005500       0.00034136
Cu       0.11327374       3.86998985       7.82336358       3.31947608       0.00027430      -0.00069946      -0.00103524
Au       0.05479532       5.82717913       9.71329694       0.58079649      -0.00018363       0.00065733       0.00002065
Cu       1.96330845       3.83308690       9.79930964       2.86126500      -0.00002929      -0.00076889      -0.00066887
Al       1.98248944       5.85465859       7.82501617      -3.21951367      -0.00069714      -0.00006920      -0.00155934
Au       0.01560183       3.90821219      11.77713390       0.30176301      -0.00311563      -0.00178115      -0.00036078
Au      -0.03119969       5.84792084      13.84437603       0.38768909       0.00125417       0.00031294      -0.00061965
Au       1.92073272       3.83589867      13.78632070       0.18271098      -0.00034868      -0.00015421       0.00018172
Al       1.98560124       5.86603948      11.81760599      -2.76005470       0.00001880      -0.00048129      -0.00025583
Al       0.01409291       7.82576623       0.06573597      -2.95434885      -0.00117441       0.00027175       0.00025734
Au       0.04774323       9.78976771       2.05878102      -0.06158777      -0.00058081       0.00021094       0.00044365
Al       1.94526643       7.83063851       1.94718054      -2.39705927      -0.00119196       0.00054887      -0.00011895
Cu       1.98185902       9.84753094       0.01759364       3.01724503      -0.00082963       0.00046783      -0.00030443
Al       0.06080615       7.76139051       3.95518723      -2.58895484      -0.00151309       0.00030760       0.00006675
Al       0.05497579       9.74955127       5.92984127      -2.70835092      -0.00052319       0.00063616      -0.00007476
Cu       1.95985064       7.80435460       5.93242139       3.14286194      -0.00089608      -0.00040361       0.00028752
Cu       1.92870373       9.90299556       3.93779360       3.07389549       0.00008815       0.00025036      -0.00034211
Cu       0.00140420       7.72778513       7.76908906       3.56405782      -0.00154581      -0.00037220       0.00026795
Al       0.01517228       9.79874322       9.71297967      -2.23230650      -0.00038395      -0.00101625       0.00043432
Al       2.01749496       7.90081636       9.78823459      -2.20874082      -0.00077679      -0.00039229      -0.00022101
Al       1.99621809       9.78963021       7.89609567      -2.12324753      -0.00061865      -0.00042350       0.00072245
Al       0.08939327       7.84924330      11.74416591      -2.15273997      -0.00010036       0.00026354      -0.00060321
Au       0.17604303       9.79658899      13.68907560       0.01263730      -0.00013073      -0.00073896       0.00001217
Cu       1.96677492       7.81262052      13.78594721       3.07519142      -0.00088682       0.00009890      -0.00080055
Cu       2.02278821       9.92948648      11.72595768       2.93555916      -0.00099316      -0.00003476      -0.00062899
Al       0.10377956      11.85890735      -0.02851134      -3.02867893      -0.00015535       0.00149495       0.00065561
Cu       0.08273203      13.78910459       2.02470520       2.85497571       0.00014536       0.00035946       0.00114910
Au       1.88908324      11.80876225       1.99703656      -1.07485281       0.00013741       0.00081220       0.00038871
Cu       1.99324496      13.84399365      -0.06440018       2.20202122       0.00078339      -0.00073524       0.00056457
Cu       0.01698121      11.80578359       3.98290684       2.75269005      -0.00025648       0.00113968      -0.00011250
Au       0.02038813      13.81715574       6.07882641      -1.60428980       0.00056404      -0.00026289       0.00015409
Au       1.86379979      11.80620990       5.94727771       0.07325777      -0.00021464       0.00039795      -0.00009713
Au       1.85830672      13.81406591       3.96533676      -0.41105367       0.00042532       0.00103335       0.00017764
Cu       0.03408132      11.89593431       7.89236351       3.24393258       0.00009537       0.00017059      -0.00003984
Au      -0.05100772      13.79297021       9.70129093      -2.01970959       0.00131285      -0.00121825       0.00051818
Au       2.02396369      11.87059799       9.81988791      -1.43031060      -0.00125304       0.00055818      -0.00011373
Cu       1.92247713      13.82443086       7.92002430       2.64956764      -0.00019041      -0.00060457      -0.00133396
Au       0.01274186      11.80432202      11.66353496      -0.44163813       0.00150119       0.00018179      -0.00171629
Au       0.03873144      13.82826006      13.59142777      -0.67148269       0.00012304       0.00080143       0.00024683
Au       2.02498574      11.90021301      13.60074984      -1.27686309       0.00059777       0.00017330       0.00140624
Cu       2.04126452      13.78953922      11.72148049       1.98458007       0.00063759       0.00139588       0.00014897
Au       0.06331157      15.60716867      -0.00518640      -0.52393075      -0.00033665       0.00081635       0.00110112
Al      -0.01270643      17.68114830       1.98788809      -2.49135548       0.00127794      -0.00024854       0.00063987
Cu       1.90373385      15.66125189       1.92121018       2.70887147       0.00058249       0.00030295       0.00059664
Au       1.96659853      17.56765624       0.05655278      -1.24341547       0.00094733      -0.00082906       0.00091787
Au       0.00335722      15.79016548       3.97034470      -0.32078199       0.00046559      -0.00072959       0.00050625
Cu      -0.10158510      17.60060963       5.87997300       2.86737397       0.00167921      -0.00056356      -0.00053512
Cu       1.84948578      15.77135722       5.99982550       2.61798602       0.00069945      -0.00068338      -0.00109840
Al       1.96567700      17.65410842       3.93097292      -2.62895726       0.00013740      -0.00141532       0.00037747
Cu       0.01333965      15.73046342       7.91600204       2.23731940       0.00067614       0.00127929      -0.00073741
Cu       0.00041259      17.60135700       9.83178727       2.16818939       0.00055349       0.00130883      -0.00064174
Au       1.93676114      15.71510978       9.84413928      -2.45872871      -0.00143309       0.00002151       0.00129654
Au       1.84640410      17.64511664       7.84399805      -1.57085393       0.00116775       0.00163210      -0.00102691
Al      -0.06321612      15.70408047      11.67830120      -4.11435886       0.00048212       0.00133216      -0.00019818
Au      -0.00492747      17.57765192      13.65089522      -1.36531447      -0.00114266      -0.00167308      -0.00053965
Cu       1.98669995      15.65601223      13.65744326       1.87688232       0.00181275       0.00172447      -0.00025531
Cu       1.90846209      17.62512368      11.69663087       2.01230596       0.00095383      -0.00061719      -0.00042067
Au       3.86815846      -0.05151942       0.07711934       0.11235828      -0.00053413       0.00117239      -0.00007602
Cu       3.91138724       1.93152149       2.06324447       2.58228028      -0.00114801      -0.00047668       0.00053185
Al       5.81094551      -0.03700575       1.99399234      -3.47107099      -0.00104487      -0.00078755       0.00106868
Al       5.80283238       1.93885682       0.02665849      -2.29684300       0.00040771       0.00159703      -0.00090147
Au       3.93318865      -0.03410677       3.91423345      -1.43654144      -0.00104342      -0.00007248      -0.00111899
Cu       3.94706731       1.85566988       5.84137783       2.66830705      -0.00132386      -0.00008875      -0.00100685
Cu       5.81209298      -0.01568723       5.79197912       1.87701392      -0.00002788      -0.00006868      -0.00058495
Cu       5.81438930       1.87932350       3.95314655       1.75366873      -0.00105298      -0.00092490      -0.00058288
Au       3.85912953      -0.03925730       7.87014948      -0.98239048       0.00100092      -0.00192763       0.00000627
Cu       3.82642670       1.92695132       9.79944496       2.86811685      -0.00148130      -0.00020280      -0.00077114
Al       5.83285509       0.00342447       9.84869693      -2.96589921       0.00270564       0.00053084       0.00194100
Au       5.87911086       1.83906233       7.76183018      -0.29148477      -0.00028571       0.00196620       0.00011784
Al       3.87230797      -0.06097760      11.65681533      -3.29852402       0.00017295       0.00019164      -0.00041320
Al       3.92047413       1.90410072      13.70657177      -2.31105200       0.00043896      -0.00071044      -0.00049158
Au       5.82191239      -0.10062301      13.64019407       0.26533893      -0.00019054       0.00216502       0.00008416
Cu       5.87036638       1.95528351      11.78418132       3.13063536       0.00104486       0.00249914       0.00097778
Al       3.94492587       3.85029582       0.07353072      -2.53941711      -0.00136110       0.00026044      -0.00022079
Al       3.91611985       5.77412749       2.01646526      -2.26633536      -0.00128442      -0.00044442      -0.00035799
Cu       5.78863724       3.73643982       2.11526568       2.95322077      -0.00091098       0.00081492       0.00014938
Au       5.79043140       5.89933131      -0.05349141      -0.20903911      -0.00078647       0.00087245      -0.00033367
Cu       3.89454247       3.71955364       3.87362426       2.40196864      -0.00017289      -0.00080037       0.00008045
Au       3.83292898       5.89610032       5.82972788       0.52653988       0.00039124       0.00072570      -0.00043029
Al       5.78328691       3.86350513       5.82626378      -3.01349307      -0.00033787       0.00021135       0.00031120
Al       5.81081109       5.87509682       3.90457809      -2.36258218      -0.00066359      -0.00013093      -0.00001012
Au       3.89850367       3.80162912       7.87014583       0.12160363      -0.00077608       0.00072256      -0.00024283
Au       3.87595900       5.85830921       9.79750211       0.99794754      -0.00118818       0.00083653      -0.00047584
Al       5.87703319       3.80580017       9.80549330      -2.36190259       0.00025389       0.00195029       0.00043791
Al       5.84061784       5.87758733       7.84467746      -2.05222454      -0.00114851       0.00045926      -0.00040090
Au       3.91286821       3.82806056      11.75958919      -0.30304545      -0.00100598       0.00060331      -0.00055868
Cu       3.87522886       5.87968694      13.76743819       2.76663281      -0.00131800       0.00063686      -0.00041658
Cu       5.80371597       3.94526167      13.67602827       3.26425565      -0.00020083       0.00132603       0.00023539
Al       5.79863553       5.89759343      11.78904628      -2.60618207      -0.00011608       0.00109607       0.00015608
Au       3.83685196       7.87362497      -0.06293688      -0.78280754      -0.00050064       0.00033123      -0.00056011
Cu       3.81389829       9.86563542       1.91689348       2.79763778       0.00021579       0.00028325       0.00004659
Au       5.80134452       7.90194476       1.96432423       0.53684372      -0.00013638       0.00049015      -0.00000969
Au       5.81754944       9.82896488      -0.01462669      -0.32489001      -0.00112375      -0.00148055       0.00106206
Au       3.75648867       7.96685670       3.92503312       0.48725827      -0.00025336      -0.00028388       0.00041191
Al       3.84011617       9.83946459       5.93921961      -2.31263623       0.00021653       0.00032073       0.00026251
Au       5.81386168       7.87355435       5.88050485       0.91698695      -0.00145929      -0.00006881      -0.00045036
Al       5.86554936       9.83041807       3.91258076      -2.71613241       0.00044342       0.00031770      -0.00037134
Cu       3.90508872       7.82187130       7.81769485       3.44807350      -0.00097217      -0.00034080      -0.00016016
Cu       3.90603047       9.91672338       9.98271912       2.42162458      -0.00114570       0.00022019       0.00044225
Au       5.72081749       7.98722252       9.82351418      -0.03391975      -0.00115115       0.00124772       0.00041307
Al       5.77511393       9.87926603       7.90963978      -2.53651166      -0.00081031       0.00022483      -0.00051958
Au       3.86586050       7.91764936      11.88213255      -0.66741299      -0.00148706       0.00097813      -0.00017030
Al       3.86860067       9.88573764      13.67663286      -3.72149235      -0.00092875       0.00013670       0.00028174
Cu       5.84649767       7.87853059      13.73653519       2.72278511      -0.00049323       0.00100938       0.00020934
Cu       5.79720193       9.87838216      11.74767712       2.19859943       0.00038354      -0.00046635       0.00025268
Au       3.80374577      11.85109277       0.01409227      -0.61058554      -0.00126620       0.00066433       0.00062702
Al       3.85287392      13.85768907       1.98890612      -3.26011263       0.00040160       0.00012807       0.00038151
Au       5.84313384      11.77859616       1.96248324       0.49598162      -0.00008557       0.00019541       0.00119515
Au       5.77238914      13.84797137       0.00585018      -0.29030937       0.00025129      -0.00023936      -0.00075222
Au       3.84669686      11.75626429       3.92535543       0.35620336       0.00023030       0.00014710      -0.00024528
Al       3.83170192      13.78297566       5.91281954      -2.21396972       0.00060267       0.00012784      -0.00062858
Au       5.93776080      11.83616144       5.86276451       0.75525604      -0.00008938      -0.00040653      -0.00053025
Au       5.91730560      13.75471106       3.90356595       0.72047850      -0.00008931      -0.00038207      -0.00029172
Al       3.90704339      11.85293192       7.91396639      -2.24252898      -0.00015785      -0.00031400      -0.00070689
Cu       3.83914867      13.82989726       9.85541544       2.20104188       0.00014134      -0.00097546      -0.00016189
Cu       5.75495289      11.75657800       9.94175649       2.36594667      -0.00024165      -0.00143780       0.00041295
Al       5.80747313      13.76007933       7.95227622      -2.41132171      -0.00032126      -0.00130203      -0.00030140
Cu       3.89733596      11.88389394      11.69268363       1.82941230      -0.00063342      -0.00074344       0.00082408
Cu       3.80368127      13.83160137      13.66867024       1.89937058      -0.00050036      -0.00097912       0.00002517
Au       5.76695423      11.92239991      13.65293113      -0.57076623      -0.00009131      -0.00128063      -0.00050969
Au       5.70831616      13.82890243      11.67817939      -1.70221144      -0.00005020      -0.00179004       0.00054951
Cu       3.79700487      15.68742639      -0.00029437       2.12294368       0.00013816       0.00110512      -0.00031778
Cu       3.87011663      17.55068875       1.94138971       2.42105069       0.00006111      -0.00014526      -0.00047008
Cu       5.83364739      15.78521029       1.98672956       2.87928755       0.00108159       0.00117439      -0.00127826
Au       5.78602100      17.52174304       0.04209533      -0.54206422       0.00199062      -0.00063868       0.00065718
Al       3.86616556      15.77954673       3.96104255      -2.67784987       0.00061680       0.00024241      -0.00014904
Cu       3.92119208      17.69307461       5.93317143       2.89804875      -0.00009698       0.00056256       0.00068101
Al       5.83284621      15.69461017       5.84792376      -2.31862796      -0.00095856       0.00055264       0.00197428
Cu       5.79523155      17.69162428       3.91507532       2.60208477      -0.00048375       0.00089836      -0.00044369
Au       3.82860425      15.72196724       7.86910749      -1.00509654       0.00265640      -0.00030820      -0.00179713
Cu       3.82297283      17.58162594       9.81513820       2.19541451       0.00149876       0.00091409      -0.00041596
Cu       5.69835035      15.76804044       9.86035020       2.23273699       0.00024352      -0.00039742       0.00072529
Au       5.80934077      17.64083303       7.85431471      -0.27122543      -0.00109202       0.00001700       0.00117545
Cu       3.80143892      15.71641803      11.69302461       1.55095059       0.00095390       0.00045313       0.00083589
Au       3.81240132      17.52896715      13.62136270      -1.13989294       0.00088727      -0.00024945      -0.00064028
Al       5.78497754      15.64609862      13.66396618      -3.80938851      -0.00110371      -0.00030939       0.00042361
Cu       5.79091095      17.51344421      11.71900281       2.49287441       0.00034599       0.00037965      -0.00075037
Au       7.84786041      -0.04101176      -0.01566826       0.14318429       0.00073867       0.00098149      -0.00230883
Au       7.76848299       1.87385170       1.98377641      -0.43668085      -0.00065184       0.00083143      -0.00118513
Cu       9.77511505       0.04625419       1.94096996       2.34031613      -0.00102162      -0.00127495       0.00082625
Cu       9.79136248       1.85044191       0.04764558       2.59311675      -0.00100601       0.00081020       0.00240830
Cu       7.74983682       0.02889514       3.92131632       2.22870376       0.00078645      -0.00118248      -0.00042995
Cu       7.75629981       1.86951822       5.78230891       2.50644371      -0.00057092       0.00085636      -0.00064838
Al       9.78539831      -0.04680301       5.81689870      -2.57309749       0.00053211       0.00040415       0.00057725
Au       9.76348742       1.87138153       3.85031883      -0.66213552       0.00154413      -0.00032142      -0.00033374
Al       7.84398657      -0.06068335       7.86490000      -2.28257688      -0.00010638       0.00045732      -0.00049969
Cu       7.85226242       1.94101632       9.79963060       3.45411959       0.00128284       0.00039555      -0.00023555
Al       9.84597020      -0.04130608       9.85595781      -1.69104268      -0.00024676       0.00086777       0.00005372
Au       9.77220133       1.92873399       7.79736331       0.76914080      -0.00012215       0.00002467       0.00022424
Au       7.80775938       0.04622969      11.72448023       0.04068200       0.00037355      -0.00186004      -0.00366995
Au       7.76898283       1.98421295      13.72740319       0.02342393      -0.00369975       0.00154843       0.00487028
Au       9.90084157       0.03880311      13.72687669      -0.04362678       0.00338035      -0.00658579       0.00115921
Au       9.87201141       2.01838381      11.78141037       0.59423975       0.00403653       0.00025195      -0.00791064
Al       7.72207067       3.91480922       0.06756716      -2.36712123       0.00112742       0.00065583       0.00081843
Al       7.74646573       5.92194673       1.97902064      -2.51332471       0.00024478       0.00119092       0.00054056
Al       9.75597085       3.89709253       1.90739410      -2.25216879      -0.00014788       0.00169685       0.00022140
Au       9.75165794       6.07170651       0.06798919       0.64651215       0.00041290       0.00056323      -0.00156844
Au       7.73596821       3.83438626       3.91856496       0.01047326       0.00049434       0.00098510      -0.00013337
Au       7.84162202       5.96829693       5.85459852       0.33145040      -0.00003495       0.00049942      -0.00075628
Au       9.79666993       3.90598253       5.80471990      -0.29051607       0.00081257       0.00068112      -0.00107355
Au       9.78251852       5.95925446       3.89730472      -0.48798752       0.00047250       0.00112668       0.00092660
Au       7.81368105       3.84242728       7.77972478       0.74107221      -0.00162301       0.00109470      -0.00080632
Al       7.80597481       5.89402992       9.78105166      -1.30211709      -0.00056101       0.00063276       0.00091627
Al       9.82300828       3.92558753       9.76656059      -2.25378365       0.00053181      -0.00103402       0.00073891
Au       9.87740706       5.94773637       7.74471111       0.63009174       0.00036769       0.00191170      -0.00091835
Al       7.78646058       3.90270810      11.74856289      -2.35507690       0.00156933       0.00157744      -0.00059706
Au       7.76468868       5.93524279      13.73334076       0.18893750       0.00296590      -0.00049601       0.00070021
Au       9.79115151       3.92090108      13.84021627       0.52869333       0.00088021       0.00583834       0.00292896
Au       9.82465812       5.84259053      11.77629411       1.36739642       0.00009667      -0.00036646       0.00053717
Cu       7.71742274       7.87567158      -0.02283981       2.97277233       0.00071380       0.00020821       0.00044260
Al       7.84093731       9.82819672       1.99549495      -3.22902725       0.00028506      -0.00016232       0.00133712
Cu       9.78343853       7.88122596       1.99460263       2.94254475       0.00038426       0.00107101       0.00143687
Au       9.72819770       9.75526067       0.04602418      -0.83518198       0.00016097      -0.00129646       0.00086167
Cu       7.88177399       7.86387236       3.95545476       3.09344585      -0.00007062       0.00087791      -0.00025929
Au       7.85196938       9.77715163       5.84975775       0.40121922      -0.00009351      -0.00009070      -0.00062419
Cu       9.83744980       7.84187567       5.80130396       2.99267619       0.00023129       0.00115224      -0.00082472
Au       9.79294249       9.77750804       3.91564686      -0.87428716      -0.00035377       0.00039715       0.00009671
Al       7.81415580       7.92588464       7.92022615      -1.88320525       0.00037181       0.00154232      -0.00040038
Cu       7.72472673       9.92521041       9.91260055       3.03879615       0.00052415      -0.00046568      -0.00018487
Al       9.86163509       7.88694476       9.80843100      -1.77319394       0.00061878       0.00026842      -0.00030449
Al       9.84723087       9.75490148       7.84592971      -2.21019452       0.00054579      -0.00091780      -0.00063026
Au       7.73831152       7.94232552      11.71291640       0.13898536      -0.00007657       0.00038966      -0.00010399
Au       7.74041171       9.83830081      13.69324293      -0.55324818       0.00015685      -0.00181181       0.00142964
Al       9.78446319       7.88597046      13.68681841      -2.63892438       0.00060022      -0.00074685       0.00072534
Au       9.81770639       9.90470163      11.73094130       0.53747182      -0.00024519      -0.00031069      -0.00043128
Au       7.86480458      11.86476618      -0.04939181      -0.82638799       0.00039700      -0.00088777       0.00040706
Al       7.86734467      13.72646562       1.95791124      -2.87583296       0.00006871      -0.00062340      -0.00021864
Cu       9.82870606      11.78197401       1.99305392       2.67059985      -0.00050376      -0.00013470       0.00052655
Cu       9.76341759      13.68836168      -0.05934149       2.60941403       0.00014993      -0.00068640       0.00018643
Cu       7.87368243      11.81614000       3.94815112       3.05279768      -0.00036799      -0.00046844      -0.00029019
Cu       7.86603942      13.67391152       5.88669758       3.30875424      -0.00063921      -0.00027027       0.00076123
Al       9.80808562      11.74300232       5.91634083      -2.72576528      -0.00070376      -0.00166378      -0.00016006
Au       9.82149820      13.66226814       3.91083646      -0.03735510      -0.00119523      -0.00013454      -0.00078207
Au       7.77654240      11.77304953       7.94806022       0.49289689       0.00038374      -0.00159202      -0.00100746
Al       7.75870054      13.80530794       9.85313791      -2.31966153       0.00091182      -0.00127512       0.00142669
Au       9.86248147      11.79698992       9.76819968       0.50795106       0.00063245      -0.00133523       0.00013641
Au       9.83498370      13.78655259       7.82990427       0.47871556      -0.00076895       0.00014598       0.00006690
Al       7.78096138      11.85818302      11.77951059      -3.07223762       0.00076357      -0.00163533       0.00076898
Cu       7.83858077      13.77323911      13.75598730       2.52242951      -0.00005804      -0.00045495       0.00033644
Cu       9.75998571      11.74128476      13.78973600       3.07086646       0.00009229      -0.00124523       0.00010805
Al       9.77499856      13.72514140      11.82067166      -2.04866714       0.00117833       0.00116489      -0.00048152
Au       7.86969347      15.64299243       0.00924172      -0.19380801      -0.00125590      -0.00073057      -0.00013518
Au       7.81319111      17.68444593       2.07822732      -0.54156938      -0.00075436       0.00026949      -0.00041340
Al       9.84478619      15.67911718       2.00100477      -2.23468946      -0.00051491      -0.00045107       0.00094396
Al       9.79173254      17.64155046       0.01807308      -2.52301059      -0.00148432       0.00198372      -0.00214307
Al       7.83609721      15.69160608       3.91945507      -2.34527217      -0.00000480       0.00088849      -0.00080878
Au       7.74772875      17.72804724       5.73288693       0.09238576      -0.00067108      -0.00076290       0.00087554
Al       9.81551930      15.73020904       5.78493319      -2.16108577      -0.00053577      -0.00106299       0.00075933
Cu       9.79577403      17.77067627       3.81198065       3.11718995      -0.00123245       0.00016589      -0.00166065
Au       7.77875557      15.67521898       7.78442553       1.06788678      -0.00116823      -0.00202010       0.00167285
Au       7.74807282      17.47681584       9.93571205       0.23509018      -0.00018556       0.00225407       0.00216907
Al       9.84148708      15.62098010       9.86185124      -1.96024733      -0.00042483      -0.00022346      -0.00034272
Al       9.80161602      17.55763495       7.83655743      -1.55312403      -0.00073719      -0.00058468       0.00060724
Cu       7.74366121      15.62053862      11.83491549       2.94231434       0.00131344      -0.00017876      -0.00089374
Au       7.81782095      17.55603650      13.61534178      -0.24176064       0.00081263       0.00016929       0.00055854
Cu       9.68472167      15.61516422      13.74405329       3.06396313      -0.00050034       0.00025547       0.00017729
Al       9.90542692      17.57563334      11.82396923      -1.98556405       0.00281030       0.00486449       0.00153662
Cu      11.71439281       0.12173433       0.05693785       2.53276018      -0.00125211      -0.00111531       0.00237780