399
Lattice="19.59262691714357 -0.0029401591670048664 0.00043227724696582155 -0.0029405439160256983 19.594541571232078 0.002722427805357169 0.0003459403246241731 0.002177382872289726 15.670877927394494" Properties=species:S:1:pos:R:3:energies:R:1:forces:R:3 energy=12.09359189283781 free_energy=12.09359189283781 stress="0.00042373107347864125 0.00010873497662036369 -0.0001227968521747426 0.00010873497662036369 5.5287294363254516e-05 -0.00026165607135241495 -0.0001227968521747426 -0.00026165607135241495 0.0009960295896300248" pbc="T T T"
Au      -0.01288477       0.04536840       0.06139395      -1.22924152       0.00034869       0.00077851       0.00097072
Cu      -0.07775200       1.90526142       1.88964928       2.72164463      -0.00040891      -0.00077275       0.00051500
Cu       2.03473861      -0.03944964       1.95004418       3.20285942       0.00135706       0.00095973      -0.00065137
Al       1.96436438       1.94566060       0.10784202      -3.31461119      -0.00042424       0.00028622       0.00180498
Al      -0.06863418      -0.02014162       3.85468982      -2.46212296       0.00060618       0.00084444       0.00047021
Al      -0.07733571       1.97754528       5.79532608      -1.87857981       0.00062109       0.00105592       0.00068567
Al       1.90516260      -0.00476722       5.82714997      -2.18272155      -0.00073224       0.00078690       0.00042949
Al       1.90533017       1.89632903       3.78568528      -2.80378875       0.00085783       0.00155845      -0.00030427
Al      -0.07295792      -0.01804181       7.75370482      -2.47250200      -0.00002526      -0.00090810      -0.00017901
Au       0.00904687       1.93597217       9.75997545      -0.02010925      -0.00121846      -0.00022584      -0.00165555
Cu       1.87430819      -0.10838140       9.80595478       2.18431621       0.00053762      -0.00102829      -0.00133542
Au       1.95662588       1.90892901       7.87446374      -0.59507525       0.00045432      -0.00015179       0.00023561
Cu       0.03597747      -0.11254960      11.74523714       2.00621816      -0.00118747      -0.00172083       0.00060368
Cu       0.01342669       1.90004295      13.78300196       2.55956029      -0.00027104      -0.00077967       0.00102359
Au       1.88006479      -0.03378875      13.67200574      -0.28301100       0.00214704      -0.00026326       0.00014393
Au       1.90378509       1.87808871      11.69000505      -0.87238510      -0.00020113       0.00009839       0.00011497
Cu       0.03511696       3.85436652       0.08532735       2.22602827      -0.00030685      -0.00086079      -0.00004875
Cu      -0.07604602       5.79269458       1.85209309       2.74189960      -0.00097622       0.00047851       0.00004378
Cu       1.88709135       3.85313815       1.92847131       2.85753546      -0.00025946       0.00023322       0.00112839
Au       1.94917196       5.78953530       0.06239642      -0.30389908      -0.00071667       0.00096729      -0.00056624
Al      -0.04918458       3.86720754       3.79718588      -2.51302851       0.00104191       0.00243345      -0.00064022
Au       0.00422521       5.75970207       5.91368400       0.13854562       0.00029430       0.00246234       0.00057298
Au       2.02747103       3.78014131       5.81087638       0.32986290       0.00023617       0.00150146       0.00071230
Al       1.91583858       5.76927451       3.82660341      -2.29510083       0.00068345       0.00037865      -0.00002459
Cu       0.11437892       3.87120743       7.82203681       3.33250753      -0.00081317       0.00025456      -0.00051338
Au       0.04853945       5.82961361       9.71184010       0.59336715      -0.00273651       0.00028081       0.00112849
Cu       1.97066424       3.84894460       9.79923478       2.86170150      -0.00138922      -0.00136765      -0.00004836
Al       1.97475536       5.85491250       7.82938590      -3.24139428       0.00065641      -0.00090165      -0.00058533
Au       0.02151187       3.91588615      11.77469197       0.29302452       0.00081678      -0.00049020       0.00029771
Au      -0.01818711       5.86017962      13.83383380       0.41490466       0.00144425      -0.00165094       0.00053733
Au       1.93334715       3.85218811      13.77173734       0.20404102      -0.00149283      -0.00095359      -0.00112740
Al       2.00489071       5.89093160      11.79812967      -2.76679204      -0.00036896      -0.00184407      -0.00131173
Al       0.03190371       7.83076376       0.05591098      -2.93291490       0.00039051       0.00075745       0.00011632
Au       0.05368908       9.78835241       2.05877517      -0.04754675      -0.00173232       0.00020368      -0.00050221
Al       1.95025259       7.83192422       1.95191360      -2.39469888       0.00048093       0.00046213      -0.00068632
Cu       1.98885184       9.84677302       0.00755916       3.03169912       0.00045777      -0.00060426       0.00147969
Al       0.05969157       7.76187850       3.95405842      -2.59735530       0.00089411      -0.00170521       0.00100925
Al       0.04879996       9.75159422       5.92929188      -2.72123166      -0.00082220      -0.00098609      -0.00047237
Cu       1.95185583       7.80602230       5.92895701       3.13609712       0.00231475      -0.00032067       0.00191336
Cu       1.92980998       9.89728644       3.95070873       3.06973058       0.00001750       0.00108859      -0.00127732
Cu      -0.00597349       7.72858418       7.76443623       3.57932538      -0.00018807       0.00027223       0.00066928
Al       0.00446761       9.80132434       9.71510005      -2.23340443      -0.00045344       0.00172852      -0.00080919
Al       1.98520112       7.90255105       9.78959292      -2.14720583      -0.00166340      -0.00019609       0.00082983
Al       1.98176849       9.78556619       7.89829667      -2.12175122       0.00163716       0.00007117       0.00151749
Al       0.07694701       7.85148178      11.74423787      -2.16080753      -0.00066529       0.00045361      -0.00226897
Au       0.17474121       9.79167827      13.68930624       0.01856667      -0.00072311       0.00023885       0.00133676
Cu       2.00295314       7.83115479      13.73443743       2.99152680      -0.00023520      -0.00274398       0.00091494
Cu       2.02015407       9.90983117      11.73084628       2.92716350      -0.00200057      -0.00048054       0.00068560
Al       0.10995479      11.85420716      -0.02576419      -3.03305987       0.00024932       0.00009531      -0.00032140
Cu       0.09296487      13.78419988       2.02796428       2.84542990      -0.00177807      -0.00071231      -0.00096298
Au       1.89796402      11.80093048       2.00225971      -1.06953084       0.00177478      -0.00073924       0.00002430
Cu       1.99739426      13.83591794      -0.06023966       2.19562668       0.00146477      -0.00044160       0.00122281
Cu       0.02273689      11.80392060       3.98593491       2.74813365      -0.00011798      -0.00137770       0.00014122
Au       0.02676447      13.80953707       6.07824677      -1.61040500       0.00159500      -0.00040362      -0.00054137
Au       1.87262373      11.79619646       5.95739176       0.06603810      -0.00091367      -0.00091265      -0.00001635
Au       1.86866099      13.80278202       3.97177252      -0.40705559      -0.00193199      -0.00050120      -0.00027784
Cu       0.03190253      11.89176177       7.89161034       3.25450877      -0.00115600       0.00113282      -0.00011360
Au      -0.04430069      13.78675782       9.70147825      -2.02301282       0.00049740      -0.00149265       0.00002243
Au       2.02454038      11.86208224       9.81917181      -1.43015098      -0.00094700      -0.00197036       0.00165098
Cu       1.93079121      13.81135034       7.92101333       2.63766327      -0.00112884      -0.00029553       0.00136135
Au       0.01646728      11.79763905      11.66682550      -0.44304186       0.00160987       0.00236103      -0.00484918
Au       0.04681119      13.82291309      13.59463163      -0.68059516       0.00075525       0.00099442      -0.00061335
Au       2.02964181      11.88736400      13.59928033      -1.28247694      -0.00034166       0.00151071       0.00021978
Cu       2.04190544      13.78562737      11.72182143       1.97781875      -0.00086229       0.00052699      -0.00037332
Au       0.07131647      15.60491208      -0.00290218      -0.52881988       0.00062993       0.00074335       0.00031205
Al      -0.00596317      17.67941533       1.98999869      -2.48664313       0.00192666      -0.00056613      -0.00063008
Cu       1.91225679      15.65550807       1.92367238       2.69270841       0.00013415      -0.00042174      -0.00060557
Au       1.97005721      17.56993575       0.05890813      -1.23532306       0.00158859      -0.00169623       0.00053744
Au       0.01419079      15.78265493       3.96993294      -0.32457955       0.00028061       0.00024119      -0.00056665
Cu      -0.09245385      17.59820736       5.87616857       2.86929191      -0.00032241      -0.00024264       0.00004431
Cu       1.85665617      15.76313474       6.00005054       2.61901039      -0.00202311      -0.00013078      -0.00005403
Al       1.97244616      17.65072571       3.93195951      -2.63840305       0.00044393      -0.00127887       0.00045883
Cu       0.01972272      15.72406976       7.91347171       2.23801628       0.00088103       0.00147007      -0.00108438
Cu       0.00232558      17.60094227       9.83094604       2.16576312       0.00045651      -0.00146428      -0.00021752
Au       1.93726856      15.71258654       9.84294491      -2.45410723      -0.00191080      -0.00053573       0.00184877
Au       1.84760736      17.64288614       7.84223424      -1.57174036      -0.00170977       0.00242317      -0.00030468
Al      -0.06243534      15.70193110      11.67950134      -4.11059772       0.00084983       0.00128213       0.00013019
Au      -0.00030257      17.57959437      13.65128299      -1.36308889      -0.00099349      -0.00125838       0.00024606
Cu       1.98825165      15.65571792      13.66059663       1.88237858       0.00111756       0.00001594       0.00007290
Cu       1.90894658      17.62545532      11.69504543       2.00813581       0.00010392       0.00008077      -0.00013069
Au       3.86736163      -0.04449022       0.07660052       0.11767916      -0.00071708       0.00051766       0.00094076
Cu       3.90797750       1.94451034       2.06204449       2.57769720      -0.00123049       0.00044587       0.00034489
Al       5.80251183      -0.02894873       2.00286986      -3.47472764      -0.00073632       0.00162622       0.00091686
Al       5.79161084       1.95369812       0.03128419      -2.28947254       0.00087404       0.00077057       0.00058447
Au       3.92727370      -0.02510414       3.91593037      -1.42204082       0.00023573       0.00048642       0.00063789
Cu       3.94519544       1.86404793       5.84391339       2.66893718      -0.00065060       0.00226045       0.00041045
Cu       5.80776039      -0.01265460       5.78770064       1.88204133       0.00105496      -0.00033479       0.00083096
Cu       5.80972890       1.89125554       3.95748650       1.74759052       0.00061646       0.00001433       0.00095550
Au       3.85745544      -0.03923810       7.86904168      -0.97814392       0.00019361      -0.00202695      -0.00088181
Cu       3.82869683       1.92874779       9.79641388       2.87991500      -0.00281003      -0.00173864       0.00082910
Al       5.83406659       0.00216458       9.84408556      -2.96582481      -0.00009507      -0.00076306      -0.00041034
Au       5.87047163       1.84458520       7.75823075      -0.29970120       0.00011499       0.00182884      -0.00023098
Al       3.87362880      -0.06115607      11.65400325      -3.29919616      -0.00097297      -0.00121255      -0.00096493
Al       3.92556059       1.91665553      13.69634041      -2.31483278      -0.00121500       0.00013146      -0.00227533
Au       5.81564554      -0.09822447      13.64382570       0.27158800       0.00297901       0.00038681      -0.00161218
Cu       5.86606258       1.95622829      11.77685198       3.13062989      -0.00095810       0.00020753      -0.00014065
Al       3.94653478       3.86710220       0.06309577      -2.51716268       0.00043186       0.00123026       0.00048985
Al       3.91850744       5.78073489       2.01769591      -2.26956312      -0.00042599      -0.00173316      -0.00164613
Cu       5.78614530       3.74914871       2.11880630       2.95372198       0.00025557       0.00127070      -0.00075330
Au       5.78911554       5.91158411      -0.06267334      -0.22195889       0.00132354       0.00061257      -0.00261671
Cu       3.89513010       3.72793649       3.87749773       2.40293291       0.00040269       0.00144626      -0.00007268
Au       3.83068296       5.89995044       5.83462854       0.50573682      -0.00016877       0.00083333       0.00198329
Al       5.78049548       3.87918618       5.83652599      -3.00611914       0.00044531       0.00194561      -0.00031746
Al       5.81269556       5.88588715       3.91139445      -2.36738773       0.00075883      -0.00093211      -0.00041293
Au       3.89742452       3.82195593       7.88049120       0.12493233      -0.00062304       0.00099970       0.00016206
Au       3.89821105       5.91254543       9.78253567       1.04523133      -0.00240120      -0.00130690       0.00114863
Al       5.87362534       3.80184411       9.79776226      -2.34434893       0.00030193      -0.00071759       0.00028773
Al       5.84258282       5.90875858       7.87254070      -1.78455995       0.00135236      -0.00320803      -0.00122378
Au       3.91629251       3.84913194      11.73816248      -0.31292826      -0.00044736       0.00151042       0.00075087
Cu       3.89086531       5.91167308      13.73634437       2.70588063       0.00148018      -0.00123918      -0.00104270
Cu       5.79490486       3.97021369      13.66022517       3.25493585      -0.00092026       0.00268361      -0.00310474
Al       5.80354089       5.92048641      11.73873073      -2.32249297       0.00162362      -0.00681138       0.00106879
Au       3.83346168       7.88035966      -0.06724708      -0.78499715      -0.00058447      -0.00038163      -0.00133407
Cu       3.81732101       9.86084870       1.91842372       2.81610686      -0.00238781       0.00068991      -0.00102668
Au       5.79841889       7.90576047       1.96199816       0.53805886       0.00126336      -0.00051676       0.00014947
Au       5.81908422       9.82565905      -0.02521161      -0.33029457       0.00248766      -0.00026140      -0.00221593
Au       3.76041014       7.97226570       3.93367483       0.47391169      -0.00084637       0.00187927      -0.00048506
Al       3.85997138       9.82804797       5.97262944      -2.30943136       0.00036595      -0.00078971       0.00252995
Au       5.81181043       7.87393787       5.89615268       0.93640993       0.00055900       0.00122801       0.00179231
Al       5.87906244       9.82006542       3.91940757      -2.73463003       0.00020681      -0.00001381      -0.00045172
Cu       3.86678879       7.80425878       7.81246984       3.38512194      -0.00051115       0.00388949       0.00017136
Cu       3.89245418       9.90928030       9.99798992       2.34802661      -0.00335161       0.00269954      -0.00404329
Al       5.76797756       9.72631465       8.09623273      -2.33042186      -0.00012529       0.00610671      -0.00189470
Au       3.94063032       7.93781873      11.78873061      -0.65750434      -0.00450726      -0.00009601       0.00353334
Al       3.88243147       9.86829335      13.64765622      -3.75624394      -0.00025321       0.00069526       0.00110555
Cu       5.83669725       7.87826672      13.71941436       2.76942448       0.00080951       0.00145428       0.00005235
Cu       5.80625762       9.90198456      11.71216027       2.10024180       0.00056723       0.00206283      -0.00220705
Au       3.80522973      11.83945654       0.00975222      -0.62910163      -0.00090223      -0.00058482      -0.00037645
Al       3.86005452      13.84254686       1.99719532      -3.25096092      -0.00154912      -0.00192634      -0.00172386
Au       5.84042066      11.76456979       1.96375196       0.49860877       0.00195109       0.00049610      -0.00122437
Au       5.76822880      13.83698348       0.00703332      -0.28661992      -0.00046251       0.00140380       0.00036718
Au       3.85350688      11.73456769       3.93903010       0.34117243      -0.00238404      -0.00005070      -0.00232023
Al       3.84109164      13.76148222       5.92527138      -2.21581039      -0.00110498       0.00062459       0.00053509
Au       5.93344247      11.78319679       5.90098018       0.74687327       0.00168823       0.00180656       0.00312907
Au       5.91725888      13.71897634       3.92976515       0.70597135       0.00139748      -0.00046174       0.00012802
Al       3.93356100      11.81506999       7.93090136      -2.24739869       0.00217184      -0.00349020       0.00077103
Cu       3.83697060      13.82494967       9.85354350       2.18861079       0.00037540       0.00098151      -0.00072023
Cu       5.75837945      11.78414615       9.94914136       2.42430173       0.00123074      -0.00182247       0.00062376
Al       5.80641023      13.75741327       7.95162546      -2.42779072       0.00033406       0.00100961      -0.00110320
Cu       3.89441539      11.88289425      11.69043043       1.84394484      -0.00053462      -0.00062320      -0.00174056
Cu       3.79847672      13.82679881      13.67157724       1.90407237       0.00082741      -0.00057455      -0.00142389
Au       5.76260547      11.91809328      13.64616367      -0.56658134       0.00100166      -0.00247586       0.00054251
Au       5.70160683      13.83632587      11.68332381      -1.73440018       0.00052840      -0.00309837       0.00000595
Cu       3.79431021      15.68229831       0.00713584       2.11501409       0.00016049      -0.00123335       0.00036127
Cu       3.86797125      17.55111393       1.94815595       2.42147134      -0.00046366       0.00047134       0.00037011
Cu       5.82809107      15.77263572       1.99576330       2.87265298       0.00013557       0.00009347      -0.00206594
Au       5.77536819      17.51894361       0.05545851      -0.55532810       0.00017529      -0.00033087      -0.00030913
Al       3.86910168      15.76487191       3.96580300      -2.67681387      -0.00169788       0.00116078       0.00075035
Cu       3.91874457      17.69261199       5.93084469       2.89796746      -0.00015810      -0.00101083      -0.00042176
Al       5.82848595      15.69087721       5.84580224      -2.31006733      -0.00166613      -0.00112032       0.00180574
Cu       5.78302239      17.69177376       3.91695403       2.60399005      -0.00026822       0.00044807      -0.00029586
Au       3.82764764      15.71779886       7.86722237      -1.01154815       0.00052895       0.00135383      -0.00200524
Cu       3.82249712      17.58059491       9.81284350       2.19354152      -0.00012751       0.00155286       0.00025082
Cu       5.69211607      15.76484459       9.85793053       2.23846904      -0.00113391       0.00096490       0.00250693
Au       5.80502838      17.63821332       7.84762276      -0.26883393      -0.00059799       0.00157156      -0.00106779
Cu       3.79705727      15.71748013      11.69468856       1.55715449       0.00016595       0.00175838       0.00012312
Au       3.81059467      17.53130548      13.62327591      -1.13077170      -0.00102222      -0.00298219      -0.00069703
Al       5.77411374      15.64404967      13.67442254      -3.80950965      -0.00045136       0.00048436      -0.00065193
Cu       5.78783305      17.51024145      11.72085660       2.48422609       0.00030928      -0.00000211      -0.00126449
Au       7.81959246      -0.03663221       0.00852202       0.16106204      -0.00098649       0.00032183      -0.00048102
Au       7.76001473       1.89072785       1.98923701      -0.44503679      -0.00008526       0.00141441       0.00094078
Cu       9.76549812       0.04994844       1.94376242       2.32642647       0.00011749      -0.00001890       0.00147394
Cu       9.78059784       1.86072652       0.05889773       2.57811079       0.00183562       0.00111652       0.00099359
Cu       7.74758477       0.03692231       3.92071591       2.23074736      -0.00032293      -0.00023503       0.00032531
Cu       7.75232733       1.87693451       5.78017485       2.50772947       0.00132845       0.00106273       0.00015296
Al       9.78534886      -0.04412777       5.81580630      -2.56513265       0.00056328       0.00023076      -0.00031886
Au       9.76132000       1.87864216       3.84951934      -0.66583615       0.00026665       0.00117002       0.00017056
Al       7.82974131      -0.05748853       7.84371767      -2.28825723      -0.00049659      -0.00122659       0.00007724
Cu       7.84319338       1.94081196       9.79330411       3.45997312       0.00065121       0.00038014       0.00002119
Al       9.80437585      -0.04853530       9.82404993      -1.75304490      -0.00013143      -0.00194484      -0.00078957
Au       9.76988739       1.93110483       7.79476671       0.77385465      -0.00041960      -0.00024242       0.00005031
Au       7.80341221       0.03982248      11.72707681       0.06495879      -0.00257731      -0.00160175       0.00215878
Au       7.74512821       1.99335773      13.73337020       0.03405965       0.00017330      -0.00133217      -0.00203651
Au       9.84789228       0.03977529      13.76701446       0.09995396      -0.00104429      -0.00090544       0.00126463
Au       9.84351569       2.02859959      11.77196631       0.73618492       0.00062022      -0.00048549       0.00057756
Al       7.71328341       3.93135727       0.05930177      -2.35792641      -0.00001385       0.00158412      -0.00007651
Al       7.74263221       5.92874012       1.97794706      -2.51263090       0.00078273       0.00027146       0.00061282
Al       9.74759401       3.90988817       1.90645604      -2.24594400       0.00035929      -0.00111899      -0.00037758
Au       9.73831927       6.08304520       0.05182806       0.62610007      -0.00079300       0.00061217      -0.00099151
Au       7.73371177       3.84696792       3.92766449       0.01011636      -0.00216390       0.00206628      -0.00072703
Au       7.84251828       5.98344027       5.87425153       0.30740220      -0.00173566       0.00215375       0.00000246
Au       9.79668364       3.91284851       5.80754653      -0.29050269       0.00180722      -0.00132820       0.00004941
Au       9.77610645       5.96467267       3.90377376      -0.49276141      -0.00044352       0.00108964       0.00176021
Au       7.81006902       3.84618426       7.77721878       0.74085659      -0.00020428      -0.00058169       0.00150928
Al       7.81820769       5.87486832       9.78728236      -1.05437803       0.00055566      -0.00405162       0.00023933
Al       9.82565445       3.92353294       9.75992591      -2.25651685       0.00162025       0.00049561      -0.00096840
Au       9.88119227       5.95394084       7.75189502       0.62654157       0.00082691      -0.00049824       0.00172304
Al       7.77282170       3.90559888      11.74738401      -2.35684727       0.00020739       0.00083018       0.00011840
Au       7.74956659       5.95854378      13.70060018       0.16685334      -0.00028438      -0.00024049       0.00137292
Au       9.77906612       3.92679056      13.84003070       0.53658510       0.00016383      -0.00222824      -0.00098381
Au       9.81735068       5.84183868      11.77137370       1.39228334       0.00042685      -0.00028466      -0.00132673
Cu       7.70882396       7.87737731      -0.03327669       3.00150109       0.00173416      -0.00029824       0.00003282
Al       7.84227449       9.82497612       1.99055264      -3.23227948      -0.00051952      -0.00080678      -0.00022572
Cu       9.77398134       7.88107281       1.99322439       2.95044224       0.00208891       0.00011407       0.00012875
Au       9.71817811       9.74601143       0.02961731      -0.84341996      -0.00102232      -0.00197921      -0.00085266
Cu       7.87871548       7.86401272       3.96201776       3.11289883      -0.00033001       0.00020315      -0.00098928
Au       7.84949040       9.74676166       5.89123626       0.37035315      -0.00160033      -0.00119955       0.00244008
Cu       9.83957669       7.84173070       5.81461271       2.99641878      -0.00182285       0.00172984      -0.00161599
Au       9.77954106       9.77262169       3.92638999      -0.88903292       0.00151164      -0.00189197       0.00049721
Al       7.79567795       7.91992385       8.00568419      -1.55126805       0.00258198      -0.00005405       0.00113354
Cu       7.78353280       9.97976294       9.93863022       3.14582657       0.00123339       0.00261088       0.00004011
Al       9.88155998       7.88195573       9.82702861      -1.73987908       0.00131183      -0.00102417      -0.00103380
Al       9.85317929       9.74564195       7.86343578      -2.22587968      -0.00134414      -0.00089633      -0.00092427
Au       7.66160837       7.96271276      11.62927777       0.10889761       0.00340467       0.00075457      -0.00083187
Au       7.72697943       9.81963037      13.66020836      -0.55839747      -0.00005674       0.00218180       0.00310515
Al       9.75656446       7.88695236      13.65080211      -2.61551595       0.00190272      -0.00074629       0.00248362
Au       9.81407434       9.90146787      11.72950526       0.48643354       0.00132607       0.00238108      -0.00198711
Au       7.85933721      11.85277737      -0.06246457      -0.82582148       0.00116572      -0.00201937      -0.00039629
Al       7.85743798      13.70650759       1.96335964      -2.86945760      -0.00038761      -0.00140183       0.00144569
Cu       9.82045741      11.77143900       1.99172812       2.67327532       0.00226437       0.00177689       0.00014204
Cu       9.75565666      13.68139534      -0.05544690       2.59714070      -0.00044874      -0.00008787      -0.00001946
Cu       7.86515209      11.79367868       3.96743747       3.05727422       0.00077618       0.00086410      -0.00108986
Cu       7.85136908      13.65184700       5.89768018       3.30065427      -0.00176449      -0.00121449       0.00045525
Al       9.79781757      11.72689315       5.92884979      -2.72943174       0.00033134      -0.00031776      -0.00027015
Au       9.80787876      13.64517523       3.91749344      -0.01900795       0.00036356       0.00086794      -0.00039165
Au       7.75574964      11.74869164       7.96185914       0.40850069      -0.00431861      -0.00065665      -0.00354038
Al       7.75824768      13.80699876       9.85157211      -2.33526004      -0.00125385       0.00115847       0.00261305
Au       9.86833147      11.81023151       9.77215447       0.45353342       0.00273067      -0.00165100       0.00400761
Au       9.82500575      13.77826828       7.82381754       0.48792186       0.00117728       0.00356681      -0.00110661
Al       7.78973957      11.88591009      11.79848504      -3.09560109       0.00074458      -0.00081104      -0.00141858
Cu       7.83358673      13.78114282      13.76423276       2.53457019       0.00044046      -0.00102046       0.00078099
Cu       9.75948367      11.73824596      13.78628583       3.07551351      -0.00040615      -0.00004553       0.00182952
Al       9.77949853      13.74275185      11.82575428      -2.03705773       0.00129028       0.00071688      -0.00072640
Au       7.85954584      15.63649289       0.02575006      -0.19929371      -0.00126570       0.00006273       0.00050196
Au       7.80160938      17.67994587       2.09255899      -0.54940887      -0.00144852      -0.00021782       0.00103869
Al       9.83591044      15.67021897       2.01317583      -2.23447545      -0.00079733       0.00046964      -0.00024684
Al       9.77853685      17.63727253       0.03497996      -2.52315032      -0.00131226       0.00092191      -0.00039029
Al       7.82340766      15.67495989       3.92244474      -2.32675000       0.00026282      -0.00038949       0.00120242
Au       7.74463264      17.72618624       5.72121412       0.08682401      -0.00091259      -0.00099978       0.00126924
Al       9.81003310      15.72329190       5.77931558      -2.15308576       0.00090674       0.00080102      -0.00010385
Cu       9.79383049      17.76961105       3.81170090       3.11500087      -0.00118462      -0.00021172      -0.00048764
Au       7.77477026      15.67219078       7.77618784       1.07524154       0.00038941       0.00162469       0.00055870
Au       7.73651265      17.47243469       9.92714398       0.24701727       0.00071962      -0.00075680      -0.00077908
Al       9.83778812      15.61777427       9.85029103      -1.95451843      -0.00088881       0.00221446      -0.00055571
Al       9.79602583      17.55675035       7.82764504      -1.54684633       0.00014099      -0.00099665       0.00001640
Cu       7.73158138      15.61965585      11.83816851       2.95075122       0.00019254       0.00044716      -0.00095830
Au       7.79786863      17.54929111      13.63350584      -0.22794459      -0.00036567      -0.00036494       0.00014350
Cu       9.67830564      15.61647512      13.76148316       3.06738215      -0.00084971       0.00009350      -0.00037896
Al       9.85575006      17.54253561      11.82466555      -2.06049963      -0.00005990      -0.00082061      -0.00012016
Cu      11.71302906       0.12407340       0.04490363       2.53375611      -0.00012486      -0.00008769       0.00036544
Cu      11.76915772       1.90875946       1.91323481       2.32415824       0.00086394      -0.00076578      -0.00003277