399
Lattice="19.59262691714357 -0.0029401591670048664 0.00043227724696582155 -0.0029405439160256983 19.594541571232078 0.002722427805357169 0.0003459403246241731 0.002177382872289726 15.670877927394494" Properties=species:S:1:pos:R:3:energies:R:1:forces:R:3 energy=12.003398273811296 free_energy=12.003398273811296 stress="4.619182944464916e-05 1.5996846853520716e-05 0.0001293840163102652 1.5996846853520716e-05 -0.0005996488657580647 -0.00020625534000178757 0.0001293840163102652 -0.00020625534000178757 0.00023708580922542535" pbc="T T T"
Au      -0.02362634       0.04561157       0.07203951      -1.22905707      -0.00170934       0.00227092       0.00070908
Cu      -0.08542874       1.90758892       1.89633215       2.73028033       0.00099147      -0.00052514      -0.00064147
Cu       2.03421741      -0.04794134       1.94942889       3.20813952       0.00094505       0.00061960      -0.00018825
Al       1.95982469       1.93774002       0.12178224      -3.32988618       0.00143480      -0.00064434      -0.00009746
Al      -0.07129219      -0.02216913       3.85257520      -2.46811311      -0.00065515      -0.00163339       0.00167053
Al      -0.07631723       1.97707188       5.79100181      -1.88385632       0.00040446       0.00076546       0.00008393
Al       1.90502823      -0.00904076       5.82297808      -2.18290670      -0.00085422       0.00086435       0.00061893
Al       1.90391393       1.88957003       3.78467208      -2.81116740       0.00038379       0.00058703       0.00064686
Al      -0.07697318      -0.01972269       7.74485364      -2.42864637      -0.00054844       0.00055964      -0.00115963
Au       0.00413992       1.97596151       9.73476364       0.22065741      -0.00119007      -0.00051133      -0.00014387
Cu       1.89301873      -0.10520627       9.77147549       2.28337280       0.00123735       0.00062298       0.00205432
Au       1.95295463       1.90555650       7.86153383      -0.58916643       0.00381423      -0.00008247      -0.00272628
Cu      -0.00618064       1.95277586      13.86623010       2.66186191      -0.00234831       0.00118380       0.00128520
Au       1.82813501      -0.02846821      13.64290965       0.12460581       0.00133429       0.00545814      -0.00378586
Au       1.87697620       1.87484753      11.68255120      -0.48049114       0.00356078      -0.00501543       0.00258664
Cu       0.02575840       3.86005846       0.10716038       2.21099041      -0.00209568       0.00010875      -0.00012866
Cu      -0.08621646       5.79717802       1.86332190       2.76278018      -0.00002287       0.00142658      -0.00049626
Cu       1.88631485       3.84731011       1.93871425       2.87549102      -0.00004009       0.00125607      -0.00060563
Au       1.93979009       5.78282183       0.07921132      -0.35473751      -0.00007241      -0.00137637      -0.00102204
Al      -0.05067262       3.87071769       3.80041936      -2.52716885      -0.00014847      -0.00088178      -0.00104186
Au       0.00817876       5.76955082       5.91087098       0.13351091      -0.00038083      -0.00062003       0.00045930
Au       2.02813101       3.78259099       5.80107170       0.32941530      -0.00155378      -0.00056843       0.00202851
Al       1.91572708       5.77291760       3.82313345      -2.29867498      -0.00032264       0.00075927      -0.00028296
Cu       0.11554955       3.88283256       7.80746460       3.35209258       0.00073062       0.00279534      -0.00244305
Au       0.05932986       5.83072321       9.71145682       0.58236091      -0.00064861       0.00091050      -0.00026951
Cu       1.96429197       3.83956049       9.79580093       2.88785808       0.00022238       0.00088882      -0.00085602
Al       1.98415976       5.86038174       7.82099965      -3.22763157      -0.00027484       0.00084377       0.00078507
Au       0.00958354       3.91450741      11.78369648       0.33613089      -0.00118106       0.00550079       0.00207913
Au      -0.02914414       5.85241246      13.84868602       0.38404609      -0.00089248       0.00017641      -0.00117448
Au       1.92558161       3.84294917      13.78435609       0.17118787      -0.00026125       0.00141227       0.00146188
Al       1.98565011       5.86774055      11.81606549      -2.76348299      -0.00169094      -0.00081532       0.00003718
Al       0.01519007       7.82852200       0.06772184      -2.96117593      -0.00067396      -0.00033761       0.00046300
Au       0.04734408       9.78976548       2.05868304      -0.05897957      -0.00054749       0.00086895      -0.00041395
Al       1.94645375       7.83433800       1.94812518      -2.40527817      -0.00074725       0.00122643      -0.00069866
Cu       1.98153499       9.84724597       0.01723515       3.02628696       0.00013606      -0.00002717       0.00005203
Al       0.06026988       7.76513530       3.95379219      -2.59765425      -0.00070991       0.00094704      -0.00066751
Al       0.05434738       9.75046717       5.92872062      -2.71662380       0.00052831       0.00060640      -0.00112218
Cu       1.96083721       7.80870827       5.92970755       3.15159918       0.00049402       0.00112334      -0.00133584
Cu       1.92865259       9.90240652       3.93686257       3.08113162       0.00105914       0.00068178      -0.00026764
Cu       0.00268003       7.73093593       7.76764882       3.57490085      -0.00010609       0.00085606      -0.00002173
Al       0.01646771       9.79841841       9.71130855      -2.23682922      -0.00015597       0.00005972      -0.00048251
Al       2.01817876       7.90286965       9.78642081      -2.21354530       0.00044854       0.00023141      -0.00043006
Al       1.99647218       9.78935500       7.89395120      -2.13100513       0.00115227       0.00088499      -0.00122313
Al       0.09375061       7.85317010      11.74354667      -2.15900398      -0.00036322       0.00120172      -0.00022902
Au       0.17542602       9.79497909      13.68927249       0.01650259      -0.00008425      -0.00046592       0.00137598
Cu       1.96720594       7.81314654      13.78618382       3.07993420      -0.00078077       0.00079735       0.00138264
Cu       2.02365369       9.92853417      11.72503223       2.94515334       0.00078679      -0.00064868       0.00043007
Al       0.10325357      11.85492490      -0.02806003      -3.03236753      -0.00057200       0.00021518      -0.00038587
Cu       0.08514984      13.79356588       2.01663102       2.84759703       0.00027250       0.00003610       0.00093626
Au       1.88742622      11.80874327       1.99580266      -1.07211697       0.00081955      -0.00114351      -0.00079201
Cu       1.98644780      13.84589814      -0.06681147       2.19797706      -0.00021478       0.00022843       0.00081389
Cu       0.01764948      11.80584881       3.98082951       2.76119372       0.00006390       0.00031517      -0.00008578
Au       0.02174402      13.80825923       6.06919583      -1.61509810       0.00033336      -0.00036201      -0.00062032
Au       1.86731692      11.80276156       5.94256307       0.06742878       0.00029616      -0.00036786      -0.00108287
Au       1.86008729      13.81407797       3.95855190      -0.40601379       0.00058743      -0.00085890      -0.00023071
Cu       0.03536797      11.89164514       7.88744375       3.24642138       0.00045824       0.00036731       0.00066143
Au      -0.04583174      13.78695664       9.69604572      -2.02097077       0.00003415      -0.00093716       0.00137419
Au       2.02671755      11.86763161       9.81741835      -1.43148746      -0.00116218      -0.00056815       0.00049462
Cu       1.92688079      13.81440652       7.91078782       2.65762910      -0.00088440      -0.00076115      -0.00011816
Au       0.01594489      11.80006179      11.66239637      -0.44966072       0.00057086       0.00047463      -0.00152411
Au       0.04239966      13.81915048      13.59459747      -0.66687318       0.00000984      -0.00144968       0.00205432
Au       2.02598009      11.89400757      13.60199415      -1.27796912       0.00059342       0.00050707      -0.00020208
Cu       2.04721610      13.78293477      11.72239698       1.98935424      -0.00094857      -0.00068650      -0.00073230
Au       0.05913467      15.61755836      -0.02147220      -0.52700872       0.00066484      -0.00170977      -0.00024688
Al      -0.00871474      17.67867552       1.98692656      -2.49721467       0.00016621      -0.00150542       0.00048692
Cu       1.90009277      15.66882797       1.90920718       2.68500248      -0.00036988      -0.00019821      -0.00136774
Au       1.94942465      17.57978150       0.03130616      -1.21168884       0.00227729      -0.00296833       0.00313310
Au       0.00503398      15.78827441       3.96756854      -0.32015909      -0.00039932      -0.00090635       0.00030893
Cu      -0.09741132      17.59705695       5.87727430       2.87431191       0.00074322      -0.00076554      -0.00132317
Cu       1.85499440      15.76141021       5.99100523       2.63069302      -0.00159874       0.00155172       0.00100200
Al       1.96583922      17.65142780       3.93097872      -2.63323240       0.00024146      -0.00061750      -0.00096993
Cu       0.02183192      15.71385271       7.89990880       2.22772655       0.00149834      -0.00134054      -0.00028849
Cu       0.02132142      17.53910271       9.79282433       2.34264089      -0.00110219      -0.00055310       0.00154475
Au       1.95167215      15.69642950       9.83725244      -2.50304567      -0.00052672      -0.00143068       0.00190437
Au       1.85592140      17.63668329       7.83018829      -1.60894459       0.00103340      -0.00140716      -0.00160698
Al      -0.05371302      15.68492874      11.68309283      -4.05185451      -0.00124742       0.00120938       0.00058236
Au      -0.02972121      17.59792227      13.62976970      -0.94069185      -0.00338451      -0.00514132      -0.00205134
Cu       1.97991878      15.66376839      13.65016243       1.87949744       0.00001283      -0.00034642       0.00142289
Cu       1.91856622      17.60970983      11.68263249       2.09647767      -0.00028254      -0.00060392      -0.00014563
Au       3.85161453      -0.04973975       0.05860977       0.12925200      -0.00041755       0.00031741       0.00012723
Cu       3.90716163       1.93257470       2.06303867       2.59008841      -0.00035519       0.00013046      -0.00033977
Al       5.79471222      -0.03827690       1.99280562      -3.47267025       0.00047536       0.00082233      -0.00033226
Al       5.78776246       1.94148423       0.02896242      -2.30237269      -0.00099143       0.00095879      -0.00077161
Au       3.92831842      -0.03388144       3.91434986      -1.42708370      -0.00096487      -0.00071969       0.00061093
Cu       3.94592405       1.85985703       5.83601090       2.67377740      -0.00163003       0.00077950      -0.00039421
Cu       5.81072901      -0.01453603       5.78683123       1.88207015      -0.00070784       0.00036518       0.00063863
Cu       5.81072399       1.88129875       3.95141057       1.75212303       0.00049677      -0.00076476       0.00011755
Au       3.86417204      -0.03808281       7.85886468      -1.00414810      -0.00201417      -0.00074093      -0.00203694
Cu       3.81912668       1.92883904       9.79340162       2.86379535      -0.00067852      -0.00050045       0.00053959
Al       5.83295584       0.00535547       9.84263903      -2.96481559      -0.00379563       0.00039740       0.00043296
Au       5.87565551       1.84592207       7.75721462      -0.28716996      -0.00164399       0.00008756       0.00028112
Al       3.87052526      -0.05129489      11.64978483      -3.22873215      -0.00084304       0.00202262      -0.00069250
Al       3.90312988       1.89719565      13.69763933      -2.29598193      -0.00155658      -0.00042342       0.00129567
Au       5.81683051      -0.09594588      13.63653780       0.26552293      -0.00024390      -0.00017062       0.00234068
Cu       5.86796407       1.95718342      11.77999784       3.13227084      -0.00078879       0.00011427       0.00028474
Al       3.94096156       3.85308553       0.07361974      -2.54441497      -0.00181789       0.00061628      -0.00073575
Al       3.91751991       5.77722733       2.01697693      -2.27301015       0.00105732       0.00062131       0.00044941
Cu       5.78562201       3.73991074       2.11620851       2.95686581       0.00123502       0.00054136      -0.00020665
Au       5.78849203       5.90064707      -0.05381470      -0.20882313       0.00057647       0.00038977       0.00041596
Cu       3.89393359       3.72260272       3.87064347       2.40567195      -0.00021790       0.00097990      -0.00039023
Au       3.83418714       5.90079694       5.82759787       0.53024289      -0.00041010       0.00107595      -0.00054425
Al       5.78195800       3.86799176       5.82263440      -3.01491201      -0.00030343      -0.00007303      -0.00010857
Al       5.81234252       5.87806693       3.90409480      -2.36437108      -0.00003273       0.00022417      -0.00110908
Au       3.89728236       3.80760336       7.86628868       0.12503871      -0.00207458      -0.00051625      -0.00006638
Au       3.87515824       5.86115213       9.79635145       0.99676288      -0.00191916       0.00020951      -0.00032730
Al       5.87259968       3.80981223       9.80277543      -2.36276300      -0.00229213       0.00072580      -0.00006709
Al       5.84003981       5.88136621       7.84332265      -2.05444935      -0.00052575      -0.00041297       0.00056195
Au       3.90515180       3.82161352      11.75357998      -0.30960083      -0.00189096       0.00157333      -0.00080110
Cu       3.87255923       5.88327611      13.76731465       2.76839936      -0.00052758      -0.00009317      -0.00003361
Cu       5.79031112       3.94700910      13.67607417       3.26007912      -0.00005144      -0.00033422       0.00044980
Al       5.79186461       5.89916263      11.79050229      -2.60929956       0.00118947       0.00007914       0.00087911
Au       3.83694432       7.87540794      -0.06213736      -0.78409318      -0.00028121      -0.00004836       0.00030580
Cu       3.81447624       9.86602916       1.91529540       2.80595661       0.00035951       0.00001746      -0.00017464
Au       5.80323181       7.90305840       1.96399417       0.53801158      -0.00032958      -0.00008503      -0.00116568
Au       5.81806634       9.82852644      -0.01510291      -0.32495820       0.00102668      -0.00086553      -0.00023193
Au       3.75881808       7.96984621       3.92355349       0.48733815       0.00071240       0.00111810      -0.00068729
Al       3.84230280       9.83977447       5.93820069      -2.31607384       0.00170714      -0.00031322      -0.00089329
Au       5.81499266       7.87549003       5.88016612       0.91963291       0.00121817       0.00106174      -0.00017231
Al       5.86789553       9.83105455       3.91101612      -2.71986500       0.00052766      -0.00018739      -0.00142123
Cu       3.90585102       7.82479658       7.81781089       3.45431925       0.00092847       0.00051536      -0.00039747
Cu       3.90696697       9.91600154       9.98141821       2.42715456       0.00085471      -0.00023157      -0.00090491
Au       5.72167138       7.98805650       9.82459881      -0.03540801       0.00077879       0.00004822      -0.00074695
Al       5.77671930       9.87862144       7.91008043      -2.53844883       0.00050177       0.00012028      -0.00077952
Au       3.86415409       7.91978556      11.88128830      -0.67035779       0.00074380      -0.00048908      -0.00055982
Al       3.86899991       9.88379234      13.67786579      -3.72602044       0.00040970       0.00086052       0.00013662
Cu       5.84604617       7.87892887      13.73624717       2.72494266       0.00085109      -0.00069000      -0.00015962
Cu       5.79810186       9.87737642      11.74940702       2.19800194       0.00109154      -0.00068110      -0.00099402
Au       3.80128671      11.85178389       0.01495807      -0.60905587       0.00069198      -0.00179904      -0.00045955
Al       3.84765945      13.86198088       1.98369503      -3.25822681       0.00234123      -0.00124297       0.00036779
Au       5.84203393      11.77888565       1.95924684       0.49557014       0.00134750       0.00024065       0.00018006
Au       5.76519843      13.85077723       0.00436362      -0.28677907       0.00125334      -0.00012473      -0.00037261
Au       3.84751013      11.75416496       3.92061614       0.35240894       0.00050837       0.00013485      -0.00052594
Al       3.83563829      13.77736840       5.90549357      -2.22143473      -0.00058874      -0.00030533      -0.00013576
Au       5.93925580      11.83325335       5.86038702       0.75595600       0.00093906       0.00046886      -0.00048845
Au       5.91516078      13.75253687       3.89945981       0.72707208       0.00094806      -0.00000252      -0.00013519
Al       3.90938163      11.84980050       7.91038099      -2.24774453       0.00056648      -0.00095123       0.00098976
Cu       3.84769462      13.81857701       9.85449482       2.21582774      -0.00052213       0.00035771      -0.00071432
Cu       5.75607555      11.75414715       9.94300896       2.36054916       0.00128387      -0.00096178      -0.00077735
Al       5.81136071      13.75352393       7.94856859      -2.41372763      -0.00167410       0.00186856       0.00026835
Cu       3.89812648      11.87842539      11.69415669       1.83006507      -0.00007925      -0.00025343      -0.00008827
Cu       3.79711746      13.83079380      13.67116269       1.90198435       0.00054871      -0.00101365      -0.00106784
Au       5.76527251      11.92005501      13.65580932      -0.56836137       0.00116902      -0.00084015      -0.00156991
Au       5.70718537      13.82442472      11.68344375      -1.71461875       0.00010051       0.00020136       0.00026689
Cu       3.78268433      15.69427370      -0.00973743       2.10659453       0.00033840       0.00067607       0.00137985
Cu       3.85390797      17.55208988       1.93078975       2.40778640       0.00057887      -0.00011821      -0.00106851
Cu       5.82712875      15.78728791       1.98584358       2.88835321       0.00037113       0.00059947      -0.00025277
Au       5.77081642      17.52259458       0.04157415      -0.55273390      -0.00028933       0.00040012       0.00066389
Al       3.86503655      15.77944000       3.95552739      -2.68303360       0.00080670      -0.00052385      -0.00019012
Cu       3.92342426      17.68895079       5.92774180       2.90896523      -0.00121769       0.00075350      -0.00052967
Al       5.83342347      15.69062813       5.84246940      -2.32142673       0.00028082       0.00085382       0.00053630
Cu       5.78978209      17.69144774       3.91395100       2.60856836      -0.00021276       0.00031858      -0.00049295
Au       3.83497898      15.71181083       7.86139458      -0.98587994      -0.00021530       0.00004365      -0.00091132
Cu       3.82539339      17.57900123       9.80777027       2.17918669       0.00267841       0.00129303       0.00027295
Cu       5.69464060      15.76113164       9.86011746       2.22790796      -0.00016792       0.00006211       0.00064965
Au       5.80744580      17.63552153       7.84896663      -0.26960304      -0.00107617       0.00192285       0.00007086
Cu       3.80370782      15.71350220      11.69443195       1.55736899      -0.00181559      -0.00004360      -0.00065480
Au       3.79657256      17.54758832      13.61012288      -1.13499669       0.00339525      -0.00219158      -0.00058888
Al       5.76807381      15.65061495      13.66425556      -3.81768574      -0.00153273       0.00047579      -0.00038497
Cu       5.78459065      17.51553748      11.71521075       2.48692098      -0.00098214       0.00019565       0.00030043
Au       7.82208138      -0.03918178       0.00235123       0.16889859       0.00022095       0.00146090      -0.00046789
Au       7.76109775       1.87669919       1.98996500      -0.45396887      -0.00000089       0.00133617      -0.00018715
Cu       9.77184520       0.04653725       1.94297800       2.32675529      -0.00008969       0.00047125       0.00086081
Cu       9.78662871       1.85585376       0.06066897       2.57988978      -0.00013472      -0.00037585      -0.00007542
Cu       7.74771325       0.03015689       3.92022462       2.22533774      -0.00093738      -0.00036352       0.00112354
Cu       7.75504269       1.87336511       5.77816172       2.51120820      -0.00009881      -0.00069551       0.00016622
Al       9.78797110      -0.04558042       5.82179105      -2.56233808      -0.00030328      -0.00031775      -0.00009713
Au       9.76434865       1.87080396       3.85229043      -0.66680972       0.00029727      -0.00120861      -0.00028037
Al       7.83036613      -0.05821600       7.84678783      -2.28673952       0.00008099       0.00110093       0.00066831
Cu       7.84230563       1.94472376       9.79471447       3.45789828      -0.00062197       0.00065710      -0.00032137
Al       9.80537419      -0.04716493       9.82452137      -1.75260804       0.00061268       0.00022641       0.00071944
Au       9.76952065       1.93093650       7.79798427       0.77436022       0.00034317       0.00045212       0.00074062
Au       7.80547976       0.04178228      11.72367638       0.06438162      -0.00161041       0.00082462       0.00067369
Au       7.74903399       1.99311883      13.73246632       0.02275824      -0.00036098       0.00035652      -0.00082560
Au       9.85145540       0.04191448      13.76363692       0.10296835      -0.00055653       0.00051768      -0.00026919
Au       9.84366641       2.03259268      11.76968163       0.73134972       0.00083424       0.00008704      -0.00019983
Al       7.71616333       3.91601886       0.07234278      -2.36753614       0.00127780      -0.00021068       0.00122208
Al       7.74766443       5.92462509       1.97917846      -2.51562238       0.00073966      -0.00136267       0.00017676
Al       9.75537708       3.89884439       1.91069261      -2.25606401      -0.00030795      -0.00129894       0.00021896
Au       9.75299985       6.07112746       0.06822779       0.64468896       0.00017032      -0.00129291      -0.00054924
Au       7.73702956       3.83836556       3.91911108       0.01651229       0.00014231       0.00013563       0.00201536
Au       7.84337432       5.97130623       5.85511693       0.33035965      -0.00074546      -0.00070361      -0.00030295
Au       9.79878468       3.90587643       5.80600644      -0.28941870       0.00124378      -0.00148837       0.00002140
Au       9.78382578       5.96044551       3.89939644      -0.48612231       0.00044169      -0.00085367       0.00069348
Au       7.81078036       3.84633207       7.77605791       0.74203229       0.00098474       0.00027356      -0.00011162
Al       7.80386245       5.89601973       9.78050690      -1.30036112       0.00084790      -0.00052946      -0.00068859
Al       9.81947080       3.93094986       9.75788365      -2.25503910       0.00198296      -0.00041663       0.00051826
Au       9.88172581       5.94800002       7.74293329       0.63055177      -0.00006011      -0.00028838       0.00031868
Al       7.77335306       3.91366893      11.74921726      -2.34896943       0.00001181      -0.00039765      -0.00076130
Au       7.76382599       5.93433116      13.73474753       0.19447012       0.00030616      -0.00098145       0.00007940
Au       9.78675848       3.91872947      13.84611557       0.53280667       0.00105635      -0.00076494      -0.00058427
Au       9.82694093       5.83490326      11.77638203       1.36993421      -0.00016360      -0.00052850      -0.00048696
Cu       7.71828686       7.87511286      -0.02296564       2.97580571      -0.00007772      -0.00073745      -0.00115109
Al       7.84145111       9.82914163       1.99455533      -3.23239098      -0.00001883      -0.00023209      -0.00097569
Cu       9.78352633       7.88155718       1.99455473       2.94408067       0.00070180      -0.00133085       0.00020401
Au       9.72693936       9.75410901       0.04474916      -0.83506276       0.00088392      -0.00077230      -0.00046558
Cu       7.88275178       7.86502217       3.95458954       3.09912431       0.00043407      -0.00100384       0.00031840
Au       7.85356423       9.77563020       5.85014780       0.39946312       0.00057966       0.00044714       0.00010568
Cu       9.83918200       7.84365632       5.80204822       2.99965245      -0.00017607      -0.00095858       0.00076291
Au       9.79269576       9.77761266       3.91465721      -0.87749107      -0.00029028      -0.00057514       0.00017525
Al       7.81604806       7.92647611       7.92149880      -1.88292392       0.00011536      -0.00057185       0.00046240
Cu       7.72610942       9.92380305       9.91495914       3.03746731      -0.00019322       0.00012384      -0.00015703
Al       9.86519910       7.88001820       9.80940470      -1.76792758      -0.00033743      -0.00005596       0.00093269
Al       9.84840792       9.75258045       7.84919352      -2.21399264      -0.00004765      -0.00008709       0.00107141
Au       7.73909930       7.93892941      11.71391183       0.14132609       0.00080370      -0.00044853      -0.00123848
Au       7.74152470       9.83610681      13.69325682      -0.55531425       0.00045456      -0.00085679      -0.00114731
Al       9.78589806       7.88200385      13.68552160      -2.63791618       0.00030151      -0.00066872      -0.00110264
Au       9.81761722       9.90094886      11.72970843       0.53494716       0.00036448      -0.00045015      -0.00029769
Au       7.86349372      11.86503255      -0.05099626      -0.82662708       0.00066707       0.00017127      -0.00162329
Al       7.86574655      13.72371069       1.95742738      -2.87447573       0.00054526       0.00061219      -0.00023607
Cu       9.82719507      11.78116904       1.99264802       2.67376104       0.00029566       0.00060351      -0.00002023
Cu       9.76014450      13.68895898      -0.05927555       2.60759271      -0.00098685       0.00035528      -0.00136050
Cu       7.87328057      11.81410261       3.94686710       3.05792546       0.00030159       0.00107265      -0.00039551
Cu       7.86645376      13.67015265       5.88421925       3.31317116      -0.00098488       0.00105276      -0.00097834
Al       9.80839668      11.73946848       5.91610298      -2.72810465      -0.00090032       0.00015603       0.00015651
Au       9.81999727      13.65930110       3.91188815      -0.03986974      -0.00026287       0.00192561      -0.00050547
Au       7.77861946      11.76953119       7.94808929       0.49683881      -0.00065808      -0.00024549       0.00013357
Al       7.75646779      13.80336218       9.85446430      -2.32185260       0.00143979      -0.00051374      -0.00141300
Au       9.86180063      11.79808568       9.77062925       0.50693522      -0.00031932      -0.00011460       0.00071297
Au       9.83394156      13.78352825       7.82702323       0.47941801       0.00045632      -0.00045276       0.00041791
Al       7.78292431      11.85805118      11.78307405      -3.07215755       0.00051077      -0.00044995      -0.00107864
Cu       7.83098957      13.77676283      13.75758224       2.51713776       0.00034016       0.00017473      -0.00077745
Cu       9.75928012      11.74225900      13.78873863       3.06935480       0.00029005      -0.00036413      -0.00095133
Al       9.77420984      13.73349362      11.82216266      -2.04266569      -0.00097451       0.00023491      -0.00067073
Au       7.86005276      15.64247513       0.01603621      -0.19617429       0.00005015       0.00096808       0.00023407
Au       7.80511044      17.68319099       2.08397979      -0.54733028      -0.00046148       0.00012107      -0.00018627
Al       9.84209696      15.67779104       2.00622578      -2.22956606      -0.00048218       0.00152110       0.00064291
Al       9.78320348      17.63842231       0.02829950      -2.52323108      -0.00057214       0.00085017      -0.00026109
Al       7.83477833      15.68758118       3.91831720      -2.33854900      -0.00052596       0.00102318       0.00024441
Au       7.74716836      17.72584944       5.72690239       0.09172993      -0.00048851      -0.00016303       0.00007508
Al       9.81734074      15.73029426       5.78259211      -2.16475713      -0.00068096       0.00094940       0.00084570
Cu       9.79516516      17.77279834       3.81342674       3.10918904      -0.00027150       0.00083233       0.00013240
Au       7.77801090      15.67032979       7.77916510       1.06933805      -0.00146014       0.00105449      -0.00062630
Au       7.73730091      17.47260304       9.92754613       0.24562377      -0.00157230       0.00087386       0.00001258
Al       9.83829513      15.61846699       9.85369276      -1.95385127      -0.00085714      -0.00041399       0.00050093
Al       9.79885569      17.55762912       7.83213455      -1.54818419      -0.00123813      -0.00024447       0.00122495
Cu       7.73019584      15.61858412      11.83569372       2.95039308      -0.00032246       0.00054431      -0.00046919
Au       7.79897255      17.55075062      13.62630238      -0.22563300      -0.00047975       0.00042805      -0.00085842
Cu       9.67814497      15.61404180      13.75418910       3.06336816      -0.00010708       0.00157608      -0.00108582
Al       9.85768715      17.54398901      11.82269306      -2.06017237       0.00097789       0.00054093       0.00010554
Cu      11.71753031       0.12140317       0.04402710       2.53398234       0.00033917       0.00043376      -0.00096918
Cu      11.77263762       1.90370325       1.91705145       2.32984840       0.00122179      -0.00034902      -0.00000302