399
Lattice="19.59262691714357 -0.0029401591670048664 0.00043227724696582155 -0.0029405439160256983 19.594541571232078 0.002722427805357169 0.0003459403246241731 0.002177382872289726 15.670877927394494" Properties=species:S:1:pos:R:3:energies:R:1:forces:R:3 energy=11.920419623597834 free_energy=11.920419623597834 stress="0.00042454167090063015 7.352424805161637e-05 -5.1674489358635394e-05 7.352424805161637e-05 0.0001582939802975122 -0.0001266942872620796 -5.1674489358635394e-05 -0.0001266942872620796 0.0009062329365494717" pbc="T T T"
Au      -0.02677381       0.03553479       0.06156785      -1.23472587       0.00041498      -0.00031534      -0.00054667
Cu      -0.08788154       1.89457307       1.89522536       2.72286488      -0.00055359       0.00021853      -0.00010905
Cu       2.02708273      -0.04971936       1.95142763       3.20310130       0.00091460       0.00107129      -0.00001822
Al       1.95328961       1.93363798       0.11878248      -3.31689330       0.00037422      -0.00023692      -0.00003149
Al      -0.07893619      -0.03135104       3.85530130      -2.46619878      -0.00032318       0.00035196       0.00177143
Al      -0.08228389       1.97071705       5.79693334      -1.87747949      -0.00040411       0.00004987      -0.00025166
Al       1.89736291      -0.01226588       5.82836935      -2.17988247      -0.00042927       0.00038658      -0.00032677
Al       1.89876566       1.88676125       3.78804792      -2.80208127       0.00046663       0.00106699      -0.00107564
Al      -0.08821933      -0.02959588       7.75723808      -2.47933860       0.00131680      -0.00066527       0.00013186
Au      -0.00236626       1.92406261       9.75889998      -0.01519199       0.00067197      -0.00135866      -0.00134119
Cu       1.87055628      -0.11219947       9.80591016       2.18531706       0.00030388       0.00100247       0.00096919
Au       1.94486535       1.89951805       7.87209232      -0.58810152      -0.00009988       0.00093322       0.00026712
Cu       0.02465087      -0.12548000      11.74688168       2.01250556       0.00072929      -0.00218798      -0.00034314
Cu       0.00282807       1.88872513      13.78737744       2.56884890      -0.00036172       0.00012448      -0.00058773
Au       1.87110489      -0.04189723      13.67476158      -0.28855644       0.00180654       0.00048311      -0.00180716
Au       1.89092079       1.86800187      11.69284646      -0.87191991      -0.00008421       0.00004123      -0.00009174
Cu       0.02285316       3.84525968       0.09564747       2.23194680       0.00021099      -0.00066500      -0.00114675
Cu      -0.09059163       5.79242852       1.85707934       2.75305815       0.00083319       0.00036706       0.00101906
Cu       1.87939532       3.84585009       1.93546154       2.86398477      -0.00103286      -0.00066327      -0.00089765
Au       1.93211622       5.78337747       0.07480567      -0.35036965       0.00081243      -0.00064549       0.00054567
Al      -0.05473118       3.86432440       3.80181384      -2.51481554      -0.00084578       0.00042006      -0.00156206
Au       0.00261466       5.76674609       5.91606520       0.13955807      -0.00043238       0.00050278      -0.00044661
Au       2.02166171       3.77894875       5.80826843       0.33092822      -0.00222463       0.00034354      -0.00018255
Al       1.90813521       5.77099239       3.82427987      -2.29224143      -0.00118176       0.00007348       0.00015405
Cu       0.11113074       3.87245642       7.82101302       3.30523817      -0.00137680       0.00073834       0.00055502
Au       0.05281937       5.83702884       9.71321529       0.59022223      -0.00005917      -0.00135663       0.00020246
Cu       1.95556152       3.83312677       9.79777112       2.84828653       0.00026166       0.00105232       0.00109653
Al       1.97850337       5.86009343       7.82420231      -3.21493786      -0.00156057      -0.00007628      -0.00055632
Au       0.01223175       3.90716717      11.77406402       0.30205763       0.00067007       0.00076841       0.00161714
Au      -0.03289703       5.85268124      13.84350363       0.39334482       0.00020437       0.00005787      -0.00060738
Au       1.91434780       3.83655227      13.78621115       0.18376148       0.00032391       0.00140020      -0.00041374
Al       1.97805507       5.87191782      11.81871615      -2.75630454      -0.00056145      -0.00050374      -0.00062176
Al       0.00389592       7.83310487       0.06291090      -2.95337749       0.00025950      -0.00130942      -0.00028781
Au       0.03865132       9.79664954       2.04949036      -0.06327920      -0.00155954      -0.00142294       0.00087667
Al       1.93784971       7.83645162       1.94450997      -2.40023391       0.00036878      -0.00015135       0.00087202
Cu       1.97536824       9.85224725       0.01231401       3.01182620       0.00076326      -0.00092977       0.00196790
Al       0.05533820       7.76877084       3.95120631      -2.59190145      -0.00043709      -0.00014431       0.00029190
Al       0.04587617       9.75183383       5.92865595      -2.70944663       0.00137960       0.00045985      -0.00064255
Cu       1.95352986       7.80798340       5.93058356       3.14625841       0.00064327      -0.00024392       0.00019164
Cu       1.92053438       9.90539132       3.93344519       3.06958367       0.00060620      -0.00290212       0.00124841
Cu      -0.00536673       7.73474633       7.77090335       3.56667988       0.00012086       0.00176968      -0.00089018
Al       0.00744005       9.80408020       9.71717036      -2.23287429       0.00066055       0.00061387       0.00158860
Al       2.01212767       7.90574468       9.79042517      -2.21181452       0.00054196      -0.00145553      -0.00138825
Al       1.98857617       9.78953512       7.89493582      -2.12596220      -0.00073352      -0.00117729      -0.00043079
Al       0.08013731       7.86454175      11.74569222      -2.15594568       0.00216351      -0.00044310       0.00087859
Au       0.15775094       9.81144097      13.69047967       0.03307477      -0.00089567       0.00007001      -0.00112381
Cu       1.95867675       7.82650048      13.78466776       3.05335537       0.00024609      -0.00155699      -0.00065266
Cu       2.02243428       9.92548627      11.73113086       2.93887118       0.00086391      -0.00061645      -0.00171869
Al       0.09542783      11.86943854      -0.03378699      -3.03310463      -0.00062168       0.00019881      -0.00276966
Cu       0.07295104      13.78956610       2.01771033       2.85065628       0.00166462       0.00022016       0.00031358
Au       1.88325789      11.81170833       1.99345517      -1.07872149       0.00006209      -0.00245822       0.00039549
Cu       1.99889521      13.84222694      -0.06045387       2.21199678       0.00066166      -0.00107573       0.00055959
Cu       0.01012282      11.80605838       3.97741879       2.75351677       0.00102070       0.00033165       0.00086048
Au       0.01913086      13.81559347       6.07886710      -1.60395887      -0.00056176       0.00110297       0.00025060
Au       1.85731886      11.80383920       5.94508287       0.07710145       0.00079522      -0.00093937       0.00078078
Au       1.85082391      13.81332127       3.96265961      -0.41012275       0.00112463      -0.00062536       0.00125978
Cu       0.02674440      11.89440314       7.89529827       3.23251871       0.00168030       0.00201940      -0.00093155
Au      -0.03952190      13.78908919       9.70321666      -2.04699830      -0.00050104      -0.00222569      -0.00039890
Au       2.02675426      11.86472225       9.81908487      -1.42256053      -0.00152017      -0.00057183       0.00054128
Cu       1.92373624      13.81989525       7.91663333       2.65523681       0.00025188      -0.00005534       0.00121721
Au       0.02027600      11.80126192      11.66963378      -0.45736317      -0.00018287      -0.00211039      -0.00139344
Au       0.07263985      13.82501172      13.59120672      -0.72873943       0.00139941       0.00085018       0.00066429
Au       2.03472179      11.88929439      13.60454156      -1.27876217       0.00214677      -0.00047383       0.00027028
Cu       2.05437153      13.78431962      11.71981594       1.98732418       0.00181380      -0.00062108      -0.00001420
Au       0.06172352      15.59931730      -0.00699554      -0.52863982       0.00154834      -0.00061282      -0.00115047
Al      -0.01868163      17.67286638       1.98130362      -2.49783011       0.00043953      -0.00013271       0.00114517
Cu       1.90030966      15.65808430       1.92030029       2.70953394       0.00125171       0.00225835       0.00097150
Au       1.96331731      17.56540034       0.05467655      -1.24831871       0.00246450       0.00186147       0.00044703
Au      -0.00538261      15.78905649       3.96551046      -0.32012823       0.00139437      -0.00047048       0.00017189
Cu      -0.10795569      17.59440039       5.88297204       2.85854725       0.00024789       0.00024159       0.00060589
Cu       1.84460914      15.76910519       5.99835395       2.61803052       0.00097379       0.00058048       0.00118741
Al       1.95965799      17.64869318       3.93082629      -2.63082164       0.00015895       0.00106380      -0.00051828
Cu       0.01352323      15.72624521       7.92033270       2.24143303       0.00039150      -0.00045995       0.00065091
Cu       0.00026185      17.59538489       9.83435008       2.17293071       0.00153833       0.00026223       0.00056312
Au       1.94523143      15.71380443       9.84097324      -2.44675541       0.00056183       0.00119290       0.00118464
Au       1.84540620      17.64334562       7.84338787      -1.56677189      -0.00001720       0.00086221      -0.00053805
Al      -0.03603444      15.70371961      11.68113770      -4.13382880      -0.00083258      -0.00126091       0.00004768
Au      -0.01275946      17.57218948      13.64920117      -1.34489010       0.00158903      -0.00018425       0.00081173
Cu       1.99720330      15.66174999      13.66145129       1.90128664       0.00078640      -0.00009753       0.00032456
Cu       1.91327217      17.62724484      11.69627290       2.01601682       0.00126808       0.00119281      -0.00121004
Au       3.86363881      -0.05045675       0.08006054       0.11088231       0.00017322       0.00072456      -0.00020363
Cu       3.90465222       1.93307018       2.06622148       2.58194350      -0.00033051       0.00154695      -0.00000458
Al       5.80351141      -0.03643354       2.00423320      -3.47521281      -0.00093875       0.00172665       0.00011690
Al       5.79376972       1.94472962       0.03504583      -2.29884128      -0.00114587       0.00246460       0.00111969
Au       3.92461039      -0.03538344       3.91675628      -1.42613837      -0.00019956       0.00208536       0.00026640
Cu       3.94048659       1.85654843       5.84111015       2.66605825      -0.00032525       0.00179132      -0.00039718
Cu       5.80868621      -0.01585326       5.78929483       1.87738096       0.00003405       0.00240360      -0.00085889
Cu       5.80967253       1.88139294       3.95634090       1.75008912      -0.00021074       0.00162626       0.00063955
Au       3.85739815      -0.03812719       7.86822327      -0.98378457      -0.00095620       0.00042426       0.00015383
Cu       3.82155109       1.92885054       9.79741008       2.86199137      -0.00014130       0.00067150       0.00048471
Al       5.83354910       0.00603772       9.84471896      -2.96142962      -0.00046858       0.00142933      -0.00029271
Au       5.87388693       1.84509387       7.75858996      -0.28581388      -0.00109061      -0.00025469      -0.00084183
Al       3.87214286      -0.05836776      11.65476578      -3.29572915       0.00017511       0.00118912       0.00007552
Al       3.91548139       1.90588768      13.70655876      -2.30758118      -0.00019223       0.00093816       0.00015096
Au       5.81846513      -0.09448622      13.64317602       0.27028564       0.00067091       0.00055259      -0.00057237
Cu       5.86834606       1.95955133      11.78220427       3.12054009      -0.00059717      -0.00010509      -0.00000347
Al       3.93838526       3.85561527       0.07444658      -2.53542850      -0.00227562      -0.00011505       0.00068050
Al       3.91205179       5.77906838       2.01671000      -2.26431742      -0.00090700      -0.00087664       0.00037546
Cu       5.78459966       3.74027446       2.12071145       2.94612998      -0.00065914       0.00147358       0.00007026
Au       5.78834390       5.90547658      -0.05384694      -0.20989317       0.00000859      -0.00240778       0.00026464
Cu       3.88856384       3.72274779       3.87438038       2.39783370      -0.00007079       0.00037923       0.00114382
Au       3.82871605       5.90055975       5.82869301       0.52685223      -0.00000741      -0.00095544      -0.00002753
Al       5.77977733       3.86746703       5.82540501      -3.00659912      -0.00070082       0.00052458      -0.00034963
Al       5.81077521       5.87887855       3.90507644      -2.35874294      -0.00171220      -0.00038740       0.00036654
Au       3.89094598       3.80425393       7.86947238       0.11845357      -0.00032435       0.00073346      -0.00059304
Au       3.87059064       5.86123810       9.79771565       0.99643891      -0.00057947      -0.00058711       0.00063980
Al       5.87273418       3.81157865       9.80332311      -2.35755912      -0.00065884      -0.00000088      -0.00074234
Al       5.83843565       5.87994319       7.84367947      -2.04932864      -0.00011331      -0.00079882       0.00017934
Au       3.90586534       3.83042316      11.75839872      -0.29890364       0.00006415      -0.00062891       0.00017916
Cu       3.86768838       5.88499377      13.76838783       2.76521135       0.00055700      -0.00158713      -0.00029348
Cu       5.79585018       3.95204192      13.67853139       3.26117628      -0.00011950       0.00083124       0.00029613
Al       5.79521437       5.90117690      11.79140342      -2.60638618       0.00045406       0.00059688      -0.00127110
Au       3.83191074       7.87672809      -0.06278930      -0.77584840      -0.00017634      -0.00246005       0.00043206
Cu       3.80966979       9.86620180       1.91646572       2.80279098      -0.00061380      -0.00328531       0.00020428
Au       5.80050911       7.90385487       1.96539787       0.54380350      -0.00025425      -0.00169566      -0.00078922
Au       5.81894000       9.82674501      -0.01208038      -0.32353346       0.00073707      -0.00176203       0.00000987
Au       3.75188111       7.97031470       3.92370877       0.48682293       0.00049870      -0.00147024       0.00009731
Al       3.83623608       9.83853818       5.93917984      -2.31089843      -0.00054524      -0.00043174      -0.00102473
Au       5.81319472       7.87499585       5.88073021       0.92354822      -0.00046082      -0.00015094      -0.00039645
Al       5.86591192       9.82887917       3.91405021      -2.71314851      -0.00087668      -0.00064279      -0.00088204
Cu       3.90232899       7.82509648       7.81973815       3.44378201      -0.00013057      -0.00172476      -0.00071904
Cu       3.90550861       9.91302190       9.98179766       2.42520000       0.00016410      -0.00117105      -0.00009048
Au       5.72212730       7.98615790       9.82415902      -0.03474479       0.00041083      -0.00026059       0.00013565
Al       5.77509832       9.87779218       7.90909717      -2.53778024       0.00072238      -0.00147507      -0.00019022
Au       3.86415115       7.91839812      11.88204273      -0.66922894      -0.00064137      -0.00244052       0.00011118
Al       3.87498763       9.88280912      13.67794187      -3.72470016       0.00162511      -0.00214028       0.00107595
Cu       5.84758251       7.88002904      13.73730439       2.72848678      -0.00032626      -0.00312697      -0.00006785
Cu       5.79964933       9.87586803      11.74771683       2.19969750      -0.00023367      -0.00016846      -0.00086332
Au       3.80612448      11.84767049       0.01959668      -0.61692626       0.00106134      -0.00176910      -0.00085319
Al       3.85134968      13.85615131       1.99383467      -3.26259489       0.00057810      -0.00091163       0.00000748
Au       5.84272047      11.77480330       1.96744950       0.49842307       0.00146764      -0.00118132       0.00067434
Au       5.76894217      13.84422830       0.01123470      -0.28873603       0.00158298      -0.00053238      -0.00017657
Au       3.84132792      11.75327545       3.92443244       0.35280003       0.00053074      -0.00022467       0.00051428
Al       3.82828939      13.77812876       5.90955938      -2.21488164      -0.00211317       0.00038703      -0.00040124
Au       5.93660620      11.83192613       5.86145854       0.75964062       0.00075245      -0.00075044       0.00017030
Au       5.91504183      13.75150049       3.90593656       0.72563330      -0.00009126      -0.00017221       0.00037579
Al       3.90508979      11.84839006       7.91012537      -2.24125703       0.00153228      -0.00067596      -0.00032833
Cu       3.84155548      13.82480425       9.85027973       2.20566569       0.00075560       0.00045088       0.00174014
Cu       5.75474142      11.75282896       9.93955267       2.36318833       0.00080912      -0.00000665      -0.00068897
Al       5.80658202      13.75564703       7.94697207      -2.41020348       0.00077744       0.00025211      -0.00077521
Cu       3.89996500      11.87674053      11.69194514       1.83506658       0.00105391      -0.00103776      -0.00069884
Cu       3.80331707      13.82745845      13.67181073       1.90832161      -0.00040419      -0.00122858       0.00100863
Au       5.76740453      11.92024509      13.65480540      -0.57138338       0.00042972      -0.00036120      -0.00010767
Au       5.70397286      13.82458965      11.67820337      -1.71173747       0.00118120      -0.00026201       0.00174371
Cu       3.79615330      15.68732535       0.00441160       2.12411401       0.00041388       0.00093956      -0.00037254
Cu       3.86328149      17.54918329       1.94477220       2.42324840      -0.00020807       0.00130212       0.00003313
Cu       5.83016920      15.78320347       1.99399838       2.88354499      -0.00037546       0.00029536      -0.00039982
Au       5.77860208      17.52081236       0.05077645      -0.55412256      -0.00050372       0.00098840      -0.00021759
Al       3.86064626      15.77664840       3.96368931      -2.68008621      -0.00008994       0.00025161      -0.00120579
Cu       3.91665025      17.69204687       5.93194646       2.90474709      -0.00106052       0.00040764       0.00002238
Al       5.83062392      15.69198662       5.84516169      -2.31774873      -0.00033628       0.00133188      -0.00002220
Cu       5.78896817      17.68910796       3.91901346       2.60322805      -0.00001106       0.00266204      -0.00026674
Au       3.82844697      15.71898920       7.86304215      -0.99848909       0.00061012       0.00067907      -0.00057535
Cu       3.82617748      17.58264905       9.81155421       2.19428950      -0.00035454       0.00215724       0.00039877
Cu       5.69301987      15.76353867       9.85796678       2.22755776       0.00080699       0.00119546       0.00007108
Au       5.80616597      17.63915175       7.84726081      -0.27317013      -0.00051478       0.00115854       0.00292832
Cu       3.80339435      15.71773153      11.69397464       1.55394385       0.00080325      -0.00069927      -0.00034357
Au       3.81554395      17.53453398      13.62248490      -1.13849193       0.00140574       0.00158415       0.00095481
Al       5.77680233      15.64100463      13.66857458      -3.81580528       0.00045172      -0.00055881       0.00005548
Cu       5.78877736      17.51294487      11.71908577       2.48635027      -0.00034510       0.00156555      -0.00202381
Au       7.82615287      -0.03937577       0.00574654       0.16304781      -0.00094435       0.00155029      -0.00004499
Au       7.76533635       1.87853889       1.99246299      -0.43895438      -0.00078035       0.00139073       0.00038533
Cu       9.77684807       0.04343433       1.94104357       2.32357700      -0.00175104       0.00067737       0.00092499
Cu       9.78782676       1.85731964       0.06066016       2.57819708      -0.00073446      -0.00084367      -0.00043889
Cu       7.75202551       0.03020892       3.92408857       2.23642623      -0.00020201       0.00183696      -0.00046682
Cu       7.75751355       1.87219685       5.77987446       2.50398848      -0.00001567       0.00196541      -0.00063586
Al       9.79391613      -0.04961737       5.81874527      -2.55916429       0.00084744       0.00116731       0.00073446
Au       9.76922541       1.86815413       3.85020633      -0.66340981       0.00060810       0.00128241      -0.00010148
Al       7.83370138      -0.05710011       7.84673516      -2.28690249      -0.00121628       0.00134887      -0.00074522
Cu       7.84518611       1.94501004       9.79491499       3.44739341       0.00001625       0.00079804      -0.00077406
Al       9.80958816      -0.04904112       9.82520558      -1.74904975      -0.00216272       0.00094597       0.00162246
Au       9.77571970       1.92955020       7.79598137       0.77538841      -0.00073436       0.00092957       0.00117549
Au       7.80533591       0.04245228      11.72573642       0.06467019      -0.00125152       0.00076444       0.00026297
Au       7.75259423       1.99341625      13.73406318       0.02258596      -0.00144594      -0.00000553      -0.00015803
Au       9.85413476       0.03811465      13.76451558       0.10148924      -0.00031944       0.00035454      -0.00021557
Au       9.84816653       2.02903293      11.77050206       0.72991964      -0.00097592       0.00151579      -0.00060869
Al       7.71853740       3.92046399       0.07348310      -2.36242540       0.00168389      -0.00035838       0.00049862
Al       7.75023003       5.92859763       1.98033170      -2.50962717      -0.00067579      -0.00174493       0.00195044
Al       9.75643859       3.90083149       1.91199541      -2.24978952       0.00199875       0.00068910       0.00002978
Au       9.75816126       6.07458139       0.06848183       0.64714406      -0.00006809       0.00035671       0.00073741
Au       7.73791347       3.83865896       3.92177686       0.01586235       0.00055187       0.00052057       0.00084718
Au       7.84465891       5.97293966       5.85501930       0.33169994       0.00045330      -0.00128190       0.00005153
Au       9.80037462       3.90633948       5.80365063      -0.28722839       0.00184465       0.00039212       0.00015274
Au       9.78756959       5.96412291       3.89989537      -0.49059458       0.00133345      -0.00060673      -0.00052399
Au       7.81426631       3.84434905       7.77588723       0.73521459      -0.00004786       0.00027797      -0.00077380
Al       7.80895481       5.89684629       9.77847746      -1.29963743      -0.00113033      -0.00022039       0.00039783
Al       9.82564673       3.93058846       9.75879186      -2.25388532       0.00069280       0.00075476      -0.00017158
Au       9.88354032       5.95323876       7.74072696       0.62562506       0.00099345       0.00024342       0.00077652
Al       7.77809280       3.91470075      11.74980856      -2.34546823       0.00025433       0.00036354      -0.00124354
Au       7.76868047       5.93947971      13.73699892       0.18892980       0.00002443      -0.00017940      -0.00088331
Au       9.78938016       3.92082045      13.84508023       0.53028898      -0.00088548      -0.00011290      -0.00045796
Au       9.82979129       5.84171988      11.77774705       1.36349161       0.00016794      -0.00111087      -0.00047686
Cu       7.72354136       7.87857221      -0.02092757       2.97074536      -0.00068093      -0.00130779      -0.00060704
Al       7.84606557       9.82848797       1.99636877      -3.23195388      -0.00084430      -0.00156164       0.00066625
Cu       9.79126981       7.88608391       1.99369588       2.93970844       0.00059905      -0.00089156       0.00106679
Au       9.73662765       9.76055312       0.04375496      -0.84167259      -0.00148073      -0.00171927      -0.00056095
Cu       7.88654386       7.86751531       3.95560914       3.09479662      -0.00022367      -0.00135790       0.00057075
Au       7.85603448       9.77710808       5.84907893       0.39029840       0.00063115      -0.00147349      -0.00079285
Cu       9.84457905       7.84784823       5.80106717       2.99298199      -0.00058163      -0.00158404      -0.00013815
Au       9.79956553       9.78179617       3.91473978      -0.87590322      -0.00018904      -0.00206547       0.00043287
Al       7.81780003       7.92959357       7.92063474      -1.88269998      -0.00100449      -0.00232798      -0.00046515
Cu       7.72651326       9.92414388       9.91317636       3.03650778       0.00061782      -0.00174418       0.00029574
Al       9.86819564       7.88855831       9.81057038      -1.76878225      -0.00106068      -0.00076001      -0.00080719
Al       9.85561943       9.75490838       7.84708784      -2.20486919      -0.00039264      -0.00136862       0.00096038
Au       7.74182890       7.94069791      11.71373667       0.13914061       0.00144872       0.00016145      -0.00003217
Au       7.74228418       9.83567090      13.69523904      -0.56085223      -0.00078346      -0.00070846      -0.00046699
Al       9.79560925       7.89000104      13.68721472      -2.63528956      -0.00032198      -0.00084770      -0.00004814
Au       9.81946673       9.90482667      11.73443096       0.54209656      -0.00103557      -0.00147991      -0.00025068
Au       7.86195269      11.86131553      -0.04577887      -0.82821371      -0.00082966      -0.00047204      -0.00065227
Al       7.86605641      13.72066412       1.96519066      -2.88063265       0.00089390      -0.00033746      -0.00088375
Cu       9.83539538      11.78396340       1.99055809       2.66982281      -0.00053082      -0.00087855       0.00015485
Cu       9.75541267      13.68520504      -0.04796623       2.62960005      -0.00159874       0.00063912      -0.00136367
Cu       7.87731765      11.81399710       3.95110891       3.05302255       0.00002439      -0.00109250      -0.00062267
Cu       7.86909218      13.66796723       5.88482333       3.30381415      -0.00096359       0.00008571       0.00115823
Al       9.81693798      11.73992479       5.91858325      -2.72207334      -0.00052656      -0.00010487       0.00002847
Au       9.82824448      13.65875256       3.91082468      -0.02967616      -0.00113470       0.00024894      -0.00123417
Au       7.77831346      11.76927009       7.94527503       0.49164745      -0.00075871      -0.00067039       0.00029273
Al       7.75328954      13.80285999       9.84938908      -2.31876301      -0.00091735       0.00047924       0.00212248
Au       9.86031761      11.79503980       9.76883152       0.50822961      -0.00118119      -0.00022842       0.00056286
Au       9.83610060      13.78303691       7.82872239       0.48011965      -0.00010645      -0.00028128      -0.00130209
Al       7.77999992      11.85654736      11.78056369      -3.07141687      -0.00069663      -0.00064486      -0.00046656
Cu       7.83397871      13.77174811      13.76088102       2.51704553       0.00044649       0.00006781      -0.00119263
Cu       9.75513599      11.74128833      13.79222506       3.08002207      -0.00074562      -0.00108428      -0.00087470
Al       9.76331718      13.73209563      11.81510591      -2.04179902      -0.00200613      -0.00024621       0.00069892
Au       7.86079031      15.63885255       0.02236144      -0.19701033      -0.00153885       0.00167822      -0.00176745
Au       7.80918987      17.68131002       2.08992763      -0.54598222      -0.00053879       0.00144413      -0.00124991
Al       9.84557572      15.67555430       2.00593802      -2.23813992      -0.00131607       0.00237420       0.00024630
Al       9.78425860      17.63351087       0.02781808      -2.52289985      -0.00025287       0.00141360      -0.00011304
Al       7.83815222      15.68493609       3.92323764      -2.33821539      -0.00013003       0.00038130      -0.00109307
Au       7.74957298      17.72534764       5.72743154       0.09586088       0.00026198       0.00095711       0.00015976
Al       9.82236031      15.72879719       5.78273236      -2.15423881       0.00050937      -0.00046927       0.00096968
Cu       9.80484941      17.76827168       3.81022396       3.10538746      -0.00117032       0.00215302      -0.00055236
Au       7.77787528      15.67111255       7.77628053       1.06990089      -0.00039931       0.00083322       0.00158040
Au       7.73577102      17.47400816       9.92572575       0.24569266       0.00142500       0.00238784       0.00116989
Al       9.83355143      15.62007487       9.85239456      -1.95540079      -0.00283849       0.00136689       0.00039527
Al       9.80240687      17.55574837       7.83186172      -1.54647983      -0.00115841       0.00131851       0.00100807
Cu       7.72904677      15.61838185      11.83392685       2.95017728      -0.00146067       0.00073169       0.00016414
Au       7.79760432      17.55001659      13.62930162      -0.22971633      -0.00187485       0.00063030      -0.00084986
Cu       9.67045314      15.61378874      13.75574832       3.08184191      -0.00110059       0.00058029      -0.00005303
Al       9.85485176      17.54662854      11.82492667      -2.05770863      -0.00159712       0.00072399       0.00003935
Cu      11.71489847       0.12145258       0.04185522       2.54919581      -0.00140874       0.00072798       0.00016357