399
Lattice="19.59262691714357 -0.0029401591670048664 0.00043227724696582155 -0.0029405439160256983 19.594541571232078 0.002722427805357169 0.0003459403246241731 0.002177382872289726 15.670877927394494" Properties=species:S:1:pos:R:3:energies:R:1:forces:R:3 energy=12.172883109703095 free_energy=12.172883109703095 stress="0.0003905668319376453 -6.0547218581664936e-05 -0.0002742972440201177 -6.0547218581664936e-05 -3.204815195254262e-05 0.00010631513429760506 -0.0002742972440201177 0.00010631513429760506 0.0007088121252769047" pbc="T T T"
Au      -0.02505219       0.05006757       0.05968921      -1.22759367       0.00089394      -0.00019661       0.00051551
Cu      -0.08142230       1.90050289       1.89612637       2.73011707       0.00026590      -0.00077264      -0.00007140
Cu       2.03073350      -0.04287908       1.95015916       3.20081637       0.00006022       0.00088751       0.00187789
Al       1.95473792       1.93992675       0.11514371      -3.31365401      -0.00103483       0.00067720      -0.00038402
Al      -0.07268259      -0.02222422       3.86191224      -2.46320760      -0.00014264      -0.00008862       0.00113410
Al      -0.08259900       1.97418390       5.81052154      -1.88564701      -0.00057942       0.00113183       0.00055089
Al       1.89995870      -0.00530685       5.83473525      -2.18579913       0.00079532      -0.00002606       0.00118932
Al       1.90262993       1.88732236       3.79188088      -2.80595909       0.00010002       0.00050753       0.00035443
Al      -0.08334722      -0.01502127       7.76670223      -2.48035478       0.00102113       0.00046970       0.00043395
Au      -0.01341020       1.94898227       9.77561679      -0.02656133      -0.00094867      -0.00013732      -0.00060487
Cu       1.86257639      -0.10114234       9.81312932       2.18187359       0.00078246      -0.00031678       0.00077810
Au       1.94088559       1.90445401       7.88796503      -0.59363167       0.00160515      -0.00028179       0.00068964
Cu       0.01680748      -0.09952274      11.75252142       1.99909256       0.00010538      -0.00062656      -0.00041704
Cu      -0.01759613       1.92105736      13.79480068       2.50293289       0.00106297      -0.00118087       0.00143119
Au       1.86673561      -0.02770490      13.67398481      -0.25993978      -0.00143392      -0.00053895       0.00012745
Au       1.88542027       1.88378807      11.69822683      -0.87385776       0.00082342      -0.00128229      -0.00060818
Cu       0.01793378       3.85204474       0.08887942       2.19823443       0.00035500      -0.00153617       0.00193993
Cu      -0.05644926       5.78551500       1.88290347       2.76989898      -0.00076134      -0.00129370      -0.00048811
Cu       1.87946185       3.84369142       1.93684699       2.85987018      -0.00299310      -0.00101821       0.00018549
Au       1.94122453       5.78017077       0.07811185      -0.34965864      -0.00035564      -0.00061801       0.00030782
Al      -0.04541543       3.85820828       3.81468173      -2.52064864      -0.00000027       0.00122797      -0.00054766
Au       0.00863969       5.76232437       5.91806546       0.14628882       0.00053327      -0.00102996       0.00189511
Au       2.02484992       3.77395617       5.81680205       0.34000080      -0.00004837       0.00219107       0.00171825
Al       1.92180797       5.76525525       3.83539317      -2.31382370      -0.00188944       0.00131377       0.00001988
Cu       0.10759735       3.87629722       7.83180108       3.32043357      -0.00112966       0.00018298       0.00107760
Au       0.04424098       5.83015529       9.72674450       0.59377407      -0.00074783       0.00037519       0.00143434
Cu       1.95426259       3.83927448       9.80795832       2.86067023      -0.00002933      -0.00006769       0.00017531
Al       1.97504359       5.85508505       7.83309193      -3.22321458       0.00208758       0.00028174      -0.00054062
Au      -0.00858473       3.92535355      11.79647157       0.30061051      -0.00005969       0.00235558      -0.00130824
Au      -0.01955775       5.86186354      13.84374618       0.41243047      -0.00120820      -0.00025882      -0.00264229
Au       1.92138701       3.84086485      13.78525878       0.18296875       0.00028507       0.00118343       0.00112363
Al       1.98690315       5.86625831      11.81567825      -2.76686597      -0.00067234       0.00094407      -0.00106302
Al       0.02175229       7.82896769       0.06596476      -2.96434363       0.00037378       0.00032830       0.00142017
Au       0.04461887       9.78665077       2.05410893      -0.05582469      -0.00015204       0.00143025      -0.00000527
Al       1.94916095       7.83358945       1.95076021      -2.41061807      -0.00017945      -0.00063639      -0.00042365
Cu       1.98055618       9.84779059       0.01304904       3.02338745       0.00011051       0.00005941       0.00048016
Al       0.06523447       7.76319157       3.95651486      -2.60146067      -0.00043325       0.00019178      -0.00002820
Al       0.05192195       9.74859557       5.92639383      -2.71063278       0.00030335       0.00042378       0.00008209
Cu       1.95858110       7.80486566       5.93707152       3.15076244      -0.00044569      -0.00016702      -0.00018332
Cu       1.92692856       9.90281414       3.93615109       3.07928569       0.00032915       0.00062108       0.00033511
Cu      -0.00044643       7.72832877       7.77130972       3.57036974      -0.00033915       0.00067174       0.00070931
Al       0.01402688       9.79676602       9.71518699      -2.23647979      -0.00062508      -0.00018161       0.00027781
Al       2.01250187       7.89955955       9.79082930      -2.21090778       0.00023251       0.00221871       0.00017857
Al       1.99162528       9.78777800       7.89609076      -2.12977694       0.00084511       0.00046276       0.00028806
Al       0.08116261       7.84512650      11.74677885      -2.15596611       0.00130199       0.00042081      -0.00132466
Au       0.16292380       9.78601030      13.68844692       0.01177683       0.00334898       0.00226429       0.00015298
Cu       1.97009224       7.81835881      13.78140523       3.07862683       0.00049280      -0.00000668      -0.00020101
Cu       2.01889242       9.92347812      11.72974872       2.93532149       0.00111216       0.00062402      -0.00141186
Al       0.09842074      11.85106882      -0.02886464      -3.02855057       0.00084355       0.00071187       0.00129994
Cu       0.08125837      13.78566997       2.02339754       2.85237442       0.00097075       0.00006571       0.00054706
Au       1.88724222      11.80568648       1.99512206      -1.08190069      -0.00009112       0.00096762       0.00125355
Cu       1.98915374      13.83858387      -0.06273803       2.20447677      -0.00007499      -0.00004430       0.00015632
Cu       0.01390657      11.80110477       3.97803339       2.75229555       0.00132156       0.00123961       0.00032418
Au       0.01927486      13.81440953       6.07730943      -1.60277099       0.00182531       0.00090471       0.00020424
Au       1.86146233      11.80331362       5.94492352       0.07353012       0.00056892       0.00062482       0.00003321
Au       1.85546925      13.81050347       3.96417410      -0.40729660       0.00203430       0.00127378      -0.00048400
Cu       0.03305296      11.89239623       7.88958214       3.24522645      -0.00004449      -0.00035653      -0.00083954
Au      -0.04704818      13.78839057       9.69941959      -2.02613148       0.00064180       0.00211366       0.00081611
Au       2.02310152      11.86604645       9.82010009      -1.42361511       0.00139693      -0.00032850      -0.00068061
Cu       1.92190235      13.82194158       7.91874663       2.64881057       0.00047176       0.00001144      -0.00039921
Au       0.01509969      11.80057698      11.66524760      -0.45188738       0.00055581      -0.00107139      -0.00015299
Au       0.04244732      13.82672977      13.59354405      -0.68570578       0.00038541       0.00012230      -0.00015650
Au       2.02016022      11.89107498      13.60391087      -1.27540792       0.00000525      -0.00042950      -0.00093307
Cu       2.03987346      13.78623217      11.72260751       1.97811317       0.00054026      -0.00034290      -0.00014380
Au       0.06529440      15.60854035      -0.00465681      -0.53084047       0.00082472      -0.00089460      -0.00083380
Al      -0.01131629      17.68394988       1.98911338      -2.49223398       0.00086949       0.00047002      -0.00008764
Cu       1.90190478      15.66098984       1.92123796       2.70438599       0.00087040       0.00093974       0.00035468
Au       1.96343710      17.57256953       0.05493729      -1.23500585       0.00000540       0.00032257      -0.00142086
Au       0.00387075      15.78942815       3.97230575      -0.31652381       0.00067212       0.00039921      -0.00134660
Cu      -0.09980678      17.60210651       5.88294095       2.86525028       0.00055679      -0.00096988       0.00158732
Cu       1.84813425      15.77100717       6.00161638       2.61103996       0.00155176       0.00092474       0.00041954
Al       1.96460641      17.65420657       3.93357149      -2.62954384       0.00026751       0.00003291       0.00081380
Cu       0.01488825      15.72948260       7.91506082       2.23318169      -0.00038958       0.00006697       0.00029775
Cu      -0.00559859      17.60655517       9.83579872       2.16224428       0.00010455       0.00041209       0.00009096
Au       1.93413830      15.71636912       9.84550045      -2.44545236       0.00123436      -0.00066405       0.00075139
Au       1.84301899      17.64816326       7.84869206      -1.56596552       0.00096486      -0.00165230       0.00191849
Al      -0.06481684      15.70261275      11.67746533      -4.11217643      -0.00053212      -0.00089639       0.00101388
Au      -0.00584378      17.57972925      13.64807100      -1.36736707       0.00213856       0.00302972       0.00122188
Cu       1.98657362      15.65672084      13.65739628       1.87802885      -0.00136004      -0.00032318       0.00065571
Cu       1.90112250      17.63277978      11.69499745       2.01175665       0.00020687      -0.00092119       0.00145410
Au       3.86451863      -0.04800767       0.07636247       0.11480256       0.00056636      -0.00020112      -0.00015428
Cu       3.90489018       1.93395685       2.06572846       2.58385504      -0.00098414       0.00006446       0.00045186
Al       5.80202383      -0.03595263       2.00292606      -3.47525945      -0.00027645      -0.00063599       0.00009111
Al       5.79376879       1.94502832       0.03534850      -2.29921211      -0.00159002      -0.00082994       0.00098342
Au       3.92636347      -0.03244632       3.91816267      -1.42440560      -0.00066308      -0.00029758       0.00175541
Cu       3.94241434       1.85658006       5.84531804       2.67248091      -0.00048028      -0.00057672       0.00119555
Cu       5.80872704      -0.01484122       5.79058598       1.87867519       0.00025015      -0.00092949       0.00086874
Cu       5.81023612       1.88220725       3.95685868       1.75199290       0.00016553      -0.00025747       0.00023930
Au       3.85424530      -0.03547356       7.87377160      -0.97398433       0.00075131       0.00143706       0.00095959
Cu       3.82224877       1.93029523       9.80351122       2.87113678      -0.00085107       0.00129921       0.00077694
Al       5.83105222       0.00370677       9.84630067      -2.96551036      -0.00048677       0.00063810       0.00076479
Au       5.87463718       1.84368445       7.75978985      -0.28981171       0.00009897      -0.00067011       0.00033530
Al       3.86599495      -0.05446852      11.65594589      -3.29679487      -0.00130650       0.00121279       0.00055717
Al       3.91968295       1.90705823      13.70523088      -2.31078137      -0.00047247       0.00130373       0.00047777
Au       5.81696862      -0.09824609      13.64072456       0.26585967      -0.00359275      -0.00179802       0.00198185
Cu       5.86900894       1.95679049      11.77980815       3.12994120      -0.00124544       0.00055220      -0.00008210
Al       3.94121575       3.85289460       0.07638753      -2.53879314      -0.00105247       0.00147069      -0.00022673
Al       3.91395215       5.77533603       2.01996207      -2.26711943      -0.00074885      -0.00024943      -0.00161092
Cu       5.78394548       3.74050982       2.12184152       2.95660792      -0.00083032      -0.00024338      -0.00053820
Au       5.78710000       5.90230897      -0.05057457      -0.21080605       0.00014878       0.00099473       0.00017113
Cu       3.88968439       3.71951635       3.87781322       2.40595265       0.00058759       0.00046312       0.00019723
Au       3.83104470       5.89837248       5.83881403       0.52543895      -0.00046362      -0.00108645      -0.00011574
Al       5.77957589       3.86701773       5.82570998      -3.01216016       0.00122809      -0.00050088      -0.00053163
Al       5.80706274       5.87778376       3.90726037      -2.36012398       0.00118304       0.00000400       0.00004633
Au       3.89304609       3.80199103       7.87456900       0.12193193      -0.00122691       0.00099384       0.00088037
Au       3.87653214       5.86146977       9.79525100       0.99957194      -0.00082463       0.00092709       0.00173752
Al       5.87537933       3.81101233       9.80094456      -2.36086169       0.00034232       0.00061789       0.00146770
Al       5.84224167       5.87966636       7.84149045      -2.05015571       0.00143110       0.00073606      -0.00107798
Au       3.91378302       3.83050240      11.75787321      -0.30646954      -0.00094865       0.00106669       0.00047929
Cu       3.87389762       5.88333400      13.76773873       2.76617365      -0.00219023       0.00062632      -0.00045524
Cu       5.79630534       3.95219977      13.67999376       3.27522419      -0.00020010       0.00060521      -0.00048292
Al       5.79556997       5.90243171      11.78895502      -2.60840264       0.00101074       0.00067521       0.00019560
Au       3.83560332       7.87677038      -0.06294502      -0.78675541      -0.00115509      -0.00138993       0.00121373
Cu       3.81355715       9.86566690       1.91679396       2.80579136      -0.00032737       0.00028308      -0.00032859
Au       5.79877247       7.90328155       1.96614136       0.53933094       0.00144170      -0.00093422      -0.00101464
Au       5.81852728       9.82814252      -0.01414987      -0.32641053      -0.00051953       0.00103410      -0.00136757
Au       3.75615205       7.96821665       3.92982299       0.49350124      -0.00054649      -0.00013143      -0.00057877
Al       3.83871726       9.83926369       5.94157336      -2.31206510       0.00139762       0.00092813      -0.00234278
Au       5.81483213       7.87522765       5.88080385       0.92924803       0.00226029       0.00018555      -0.00025736
Al       5.86714952       9.82932258       3.91245244      -2.71632796       0.00026697      -0.00080306      -0.00096352
Cu       3.90321544       7.82345900       7.82015594       3.44633113      -0.00003683       0.00099891       0.00076374
Cu       3.90358494       9.91391987       9.98333637       2.42369595       0.00063295       0.00137809      -0.00085634
Au       5.72284880       7.98895109       9.82165336      -0.03463263       0.00027911       0.00088809      -0.00015524
Al       5.77642689       9.87943438       7.90865356      -2.53172693       0.00128362       0.00049711      -0.00021609
Au       3.86643648       7.91901333      11.87975227      -0.67636274       0.00002485       0.00066612       0.00010821
Al       3.87175666       9.88596800      13.67528458      -3.72886732       0.00008445      -0.00015491       0.00040055
Cu       5.84565087       7.87943409      13.73682293       2.72641596       0.00031798       0.00004327      -0.00009307
Cu       5.79922002       9.87764227      11.74755080       2.20095286      -0.00017176       0.00084305      -0.00029308
Au       3.80307510      11.84870913       0.01389958      -0.61640475       0.00108287      -0.00024169       0.00159536
Al       3.85050613      13.85450745       1.98950589      -3.25829851       0.00036997       0.00063639      -0.00013099
Au       5.84432677      11.77493472       1.96280610       0.49436039       0.00076015       0.00001667      -0.00198196
Au       5.77020888      13.84352296       0.00806013      -0.28185241      -0.00082001      -0.00044744      -0.00024118
Au       3.84617935      11.75332636       3.92478655       0.35328193      -0.00072030       0.00101114      -0.00018124
Al       3.82997232      13.77918650       5.91250623      -2.21198979       0.00095074       0.00076630       0.00009931
Au       5.93903010      11.83172410       5.86223550       0.75591169       0.00011462       0.00069235      -0.00099357
Au       5.91648046      13.75020806       3.90374362       0.72116087      -0.00003799       0.00057275      -0.00026356
Al       3.90460166      11.84945362       7.91353628      -2.23887922       0.00192670       0.00116031       0.00005779
Cu       3.83439643      13.82756535       9.85522842       2.20009488       0.00083614       0.00050864      -0.00028804
Cu       5.75393380      11.75297447       9.94301241       2.36056262       0.00085060       0.00042783      -0.00063286
Al       5.80566292      13.75577304       7.95264851      -2.40591145       0.00054040       0.00064466      -0.00064837
Cu       3.89406812      11.87971781      11.69458805       1.83061274      -0.00017330      -0.00076004      -0.00084232
Cu       3.79753864      13.82393384      13.66982477       1.90082217       0.00007586       0.00082048      -0.00014699
Au       5.76856402      11.92068341      13.65332145      -0.56789345      -0.00031999       0.00043300       0.00096138
Au       5.70279350      13.82449154      11.67777470      -1.70659420      -0.00068219       0.00017212      -0.00137128
Cu       3.78914584      15.68507064      -0.00099508       2.11557157       0.00033780       0.00000406       0.00117767
Cu       3.86366767      17.55062303       1.94263267       2.42297783       0.00001580       0.00003984       0.00155017
Cu       5.82994229      15.78137340       1.99009507       2.88356991      -0.00069645      -0.00052486       0.00255931
Au       5.77541395      17.51753554       0.04708234      -0.55569486      -0.00201467       0.00249494      -0.00057447
Al       3.86207447      15.77631322       3.96178909      -2.67566477       0.00039337       0.00061356       0.00115926
Cu       3.91555383      17.69382112       5.93542819       2.89682795       0.00021724      -0.00049272       0.00053818
Al       5.82931874      15.69217258       5.84743309      -2.31331125      -0.00064142       0.00006382      -0.00063766
Cu       5.78858160      17.69069481       3.91882221       2.60381600      -0.00127423      -0.00131260       0.00129477
Au       3.82495944      15.72062555       7.86915666      -1.00966913      -0.00102012       0.00043114       0.00104145
Cu       3.81906950      17.58450628       9.81585553       2.19396184      -0.00046746      -0.00097550       0.00049790
Cu       5.69075365      15.76490980       9.86064258       2.22869713      -0.00078813      -0.00081178      -0.00048427
Au       5.80343859      17.63956710       7.85067940      -0.27132116      -0.00021503      -0.00005590      -0.00053074
Cu       3.79655389      15.71697227      11.69434623       1.55231387       0.00031435      -0.00099953      -0.00088576
Au       3.80557905      17.53503196      13.61904884      -1.13526599      -0.00014650       0.00259040       0.00218737
Al       5.77169585      15.64090666      13.66624959      -3.80879523       0.00003534      -0.00043008      -0.00009013
Cu       5.78512590      17.51334017      11.71918074       2.48587961      -0.00118282       0.00024812      -0.00021743
Au       7.82120590      -0.04030457       0.00567621       0.16714683      -0.00053374       0.00148912       0.00033624
Au       7.76364244       1.88043020       1.99217220      -0.44472694       0.00021205      -0.00121550      -0.00117119
Cu       9.77097253       0.04610484       1.94387518       2.32801830      -0.00162820      -0.00079453      -0.00064338
Cu       9.78571588       1.85460400       0.05998167       2.57729167      -0.00001161       0.00020071       0.00149621
Cu       7.75144414       0.03163107       3.92344679       2.22783821      -0.00205015      -0.00087580      -0.00031384
Cu       7.75674600       1.87500663       5.77898656       2.50657295      -0.00117891      -0.00002468      -0.00011653
Al       9.78948892      -0.04361284       5.82015860      -2.56425297      -0.00054148      -0.00037094       0.00090567
Au       9.76727870       1.87523118       3.84917367      -0.66164084      -0.00105634       0.00085510       0.00047371
Al       7.83218516      -0.05723393       7.84772676      -2.28602277      -0.00096641      -0.00021403      -0.00041611
Cu       7.84187031       1.94459155       9.79357473       3.45397302       0.00101565      -0.00025002       0.00080584
Al       9.80718126      -0.04507879       9.82453301      -1.75064602      -0.00153397      -0.00189111       0.00067977
Au       9.77250454       1.93431339       7.79666279       0.77380729      -0.00012963      -0.00128943       0.00048129
Au       7.80374433       0.04072709      11.72454305       0.06351017       0.00023940      -0.00065290       0.00013210
Au       7.74828873       1.99261613      13.73392576       0.02065387      -0.00018083       0.00055977       0.00082209
Au       9.84625964       0.03632313      13.76307080       0.10835900      -0.00042147      -0.00115906       0.00016083
Au       9.84110759       2.03191741      11.77069105       0.73244158       0.00076312       0.00005446      -0.00263166
Al       7.71701179       3.91938981       0.07446575      -2.36590938       0.00126783      -0.00160799      -0.00013769
Al       7.74648404       5.92677153       1.98124866      -2.51615396       0.00021675      -0.00155490       0.00054049
Al       9.76200926       3.90188998       1.90330414      -2.25881573       0.00025578      -0.00077818      -0.00067260
Au       9.75055600       6.07469657       0.06714574       0.63956377       0.00190483      -0.00255637      -0.00060678
Au       7.73787203       3.84140445       3.91991115       0.01448132       0.00214011      -0.00162987      -0.00061582
Au       7.84793508       5.97432285       5.84586817       0.31899662       0.00108867      -0.00152329       0.00068823
Au       9.80187785       3.91134459       5.80124614      -0.29124452       0.00007421      -0.00017877      -0.00152521
Au       9.79609172       5.95950805       3.88479446      -0.50372422       0.00169918      -0.00008765      -0.00253046
Au       7.81247947       3.84643652       7.77160077       0.73942840      -0.00035532       0.00153212       0.00015093
Al       7.80441623       5.89732207       9.77814676      -1.30095779       0.00146652       0.00145960      -0.00005590
Al       9.81797095       3.93148420       9.75888305      -2.25295734       0.00057233      -0.00040435      -0.00006239
Au       9.87719081       5.95238502       7.74074344       0.63668364       0.00148910       0.00074654      -0.00013263
Al       7.77263485       3.91394176      11.74943963      -2.35032887       0.00087552      -0.00053782       0.00029671
Au       7.76237779       5.93661706      13.73589108       0.18609615       0.00138356      -0.00027041       0.00035494
Au       9.78544860       3.92012634      13.84666483       0.52704548       0.00135838      -0.00059784       0.00121804
Au       9.82206282       5.83890170      11.77673037       1.36770644      -0.00006065      -0.00096814       0.00151374
Cu       7.71663140       7.87591052      -0.02231915       2.98136934       0.00173855       0.00028315      -0.00095999
Al       7.84626126       9.82365195       1.99212126      -3.23205155       0.00082804       0.00011808      -0.00032151
Cu       9.79850757       7.87703633       1.98925868       2.96173781       0.00145782      -0.00043632       0.00017510
Au       9.73945907       9.74526229       0.04148538      -0.82354214      -0.00065638       0.00070917      -0.00078687
Cu       7.88866843       7.86389259       3.94935205       3.09807221      -0.00097494      -0.00019891       0.00000214
Au       7.85879107       9.77348083       5.84208093       0.39279256      -0.00071902      -0.00047280      -0.00005679
Cu       9.84876617       7.84088805       5.78969463       2.98485998      -0.00008625      -0.00053451      -0.00081197
Au       9.80432758       9.77226356       3.90512136      -0.88572351       0.00098925       0.00025888      -0.00235162
Al       7.81632241       7.92810813       7.91652474      -1.87678577       0.00101952       0.00089327      -0.00057450
Cu       7.72751173       9.92522225       9.91317670       3.03607591       0.00107819       0.00134417       0.00023012
Al       9.86147206       7.88836112       9.80929767      -1.77565796       0.00161976      -0.00061178      -0.00026032
Al       9.85002501       9.75283299       7.84153878      -2.20496524       0.00134243       0.00106737      -0.00049886
Au       7.73854078       7.94187477      11.71267035       0.14070664       0.00223809       0.00088587      -0.00013024
Au       7.74217090       9.83599886      13.69413070      -0.55213223       0.00079155       0.00097983       0.00063263
Al       9.78315875       7.88545108      13.68332481      -2.63188112       0.00038539      -0.00153740       0.00179593
Au       9.82182111       9.90447564      11.73376454       0.53469724       0.00063083      -0.00118649       0.00123484
Au       7.87000593      11.85863634      -0.05010157      -0.82656680       0.00041176      -0.00047430      -0.00048505
Al       7.86984201      13.71739717       1.95930877      -2.87141017      -0.00097245       0.00101945      -0.00054561
Cu       9.83663531      11.77259857       1.98656045       2.66762131       0.00008680       0.00127745       0.00055708
Cu       9.76611649      13.68276685      -0.05837306       2.59921041       0.00005705      -0.00023166      -0.00074589
Cu       7.87611934      11.80989540       3.94629702       3.05643268       0.00041936       0.00013571      -0.00120942
Cu       7.86776627      13.66782740       5.88481637       3.30518366      -0.00032819       0.00081162      -0.00138484
Al       9.81297443      11.73572980       5.90991189      -2.72229661       0.00114755      -0.00041527      -0.00075500
Au       9.82539536      13.65343818       3.90797723      -0.02984297      -0.00003571       0.00119997      -0.00054702
Au       7.77942377      11.76886236       7.94509672       0.49273445       0.00108564       0.00058966      -0.00009749
Al       7.75750001      13.80214588       9.85264113      -2.31444583      -0.00191079      -0.00035221      -0.00117526
Au       9.86294095      11.79639300       9.76871694       0.49712871       0.00048335       0.00126204      -0.00118537
Au       9.83449738      13.78159886       7.82495305       0.47479969       0.00056855      -0.00194818      -0.00089769
Al       7.78459172      11.85802830      11.78234733      -3.06522138      -0.00052271       0.00027997      -0.00091209
Cu       7.83683203      13.77176773      13.75993306       2.51799818      -0.00017717       0.00068537      -0.00122039
Cu       9.76870829      11.73339601      13.79019520       3.06435398       0.00116953       0.00025075       0.00069118
Al       9.77548422      13.73119417      11.82245544      -2.03853264      -0.00077369       0.00030271      -0.00096630
Au       7.86336387      15.63714791       0.01778786      -0.19235295      -0.00038820      -0.00002382       0.00056268
Au       7.80585823      17.68040182       2.08794476      -0.54388606      -0.00124959      -0.00028241       0.00094014
Al       9.84350007      15.67470236       2.00757288      -2.22622173      -0.00093479       0.00030155       0.00011606
Al       9.78130915      17.63596174       0.03040817      -2.52411790      -0.00121101       0.00089328      -0.00048333
Al       7.83615432      15.68436846       3.92187345      -2.33685242      -0.00070548      -0.00049797       0.00086140
Au       7.74767019      17.72597609       5.72862229       0.09141960      -0.00123000      -0.00123136       0.00018249
Al       9.81948354      15.72727165       5.78239828      -2.16213483      -0.00131692      -0.00059808      -0.00055219
Cu       9.79649295      17.77153440       3.81394933       3.11077104      -0.00074700      -0.00070417       0.00082634
Au       7.77715399      15.67170525       7.77908539       1.07050453      -0.00201406      -0.00186019      -0.00147647
Au       7.73634633      17.47241180       9.92768932       0.24694329      -0.00138966      -0.00063401      -0.00021138
Al       9.83834418      15.61733001       9.85247592      -1.95200121      -0.00136061      -0.00125791      -0.00118031
Al       9.80010033      17.55798655       7.83163759      -1.54600503      -0.00235428      -0.00189869      -0.00000727
Cu       7.73066488      15.61576132      11.83543283       2.94728038      -0.00101826      -0.00046414      -0.00113356
Au       7.79787224      17.54715193      13.62736321      -0.22987239      -0.00091768       0.00072704       0.00041803
Cu       9.67939791      15.61346220      13.75386198       3.06532003      -0.00172454      -0.00045933       0.00101555
Al       9.85733905      17.54337007      11.82073071      -2.05909215      -0.00126365      -0.00049394      -0.00006535
Cu      11.71467784       0.11583650       0.04556612       2.53506740       0.00203179      -0.00059601      -0.00122536