399
Lattice="19.59262691714357 -0.0029401591670048664 0.00043227724696582155 -0.0029405439160256983 19.594541571232078 0.002722427805357169 0.0003459403246241731 0.002177382872289726 15.670877927394494" Properties=species:S:1:pos:R:3:energies:R:1:forces:R:3 energy=11.908123489859728 free_energy=11.908123489859728 stress="0.0004165881265307142 0.00012396996058632116 -4.269641985237037e-05 0.00012396996058632116 0.0001473943572545163 -0.0001574656036170711 -4.269641985237037e-05 -0.0001574656036170711 0.000877186002562492" pbc="T T T"
Au      -0.01813505       0.04222903       0.06362665      -1.22370461       0.00014463       0.00097596      -0.00051427
Cu      -0.08385373       1.90118609       1.89571913       2.72025351       0.00046396      -0.00150950      -0.00017102
Cu       2.03534542      -0.04675720       1.95224801       3.20355731       0.00057780      -0.00070214      -0.00068483
Al       1.96112998       1.93510638       0.11845416      -3.31248331       0.00062057       0.00042068       0.00006611
Al      -0.07278782      -0.02195378       3.85783743      -2.46361980       0.00089115      -0.00077912      -0.00024646
Al      -0.07613194       1.97861999       5.79785753      -1.87606961       0.00073402      -0.00059715      -0.00026380
Al       1.90493348      -0.01000900       5.82856569      -2.18225495       0.00007602       0.00058603      -0.00001746
Al       1.90536992       1.89071003       3.78914001      -2.80314552       0.00032863      -0.00050674      -0.00152729
Al      -0.07871904      -0.02092156       7.75371741      -2.47538569       0.00228697       0.00131138       0.00051368
Au       0.00472582       1.92988291       9.75915678      -0.02299960       0.00077459       0.00019311       0.00003885
Cu       1.87423987      -0.11071052       9.80654088       2.18502832       0.00137147       0.00022405       0.00086430
Au       1.95525422       1.90097752       7.87288948      -0.59413449       0.00088155      -0.00076039       0.00092073
Cu       0.03117682      -0.11691660      11.74652968       2.00667952       0.00069371      -0.00046177      -0.00044490
Cu       0.00575900       1.89106934      13.78586071       2.55904848       0.00044641      -0.00056976      -0.00071780
Au       1.87833438      -0.03970395      13.67450476      -0.28083006       0.00003480       0.00136198      -0.00106141
Au       1.89797815       1.87098472      11.69279109      -0.87498114       0.00117941      -0.00024354       0.00016156
Cu       0.02645494       3.84461214       0.09418566       2.22780391       0.00078700       0.00058740      -0.00010041
Cu      -0.08436031       5.78962423       1.85817713       2.75326355      -0.00091508       0.00039131      -0.00098821
Cu       1.88395867       3.84680295       1.93594467       2.86574949       0.00117874       0.00021222      -0.00051068
Au       1.93952506       5.78088228       0.07620654      -0.35339318       0.00007124      -0.00040274      -0.00119109
Al      -0.04975557       3.86772930       3.80122096      -2.51719188       0.00036885      -0.00082773      -0.00037983
Au       0.00713178       5.76067180       5.91605919       0.14315531       0.00114946       0.00007006      -0.00024080
Au       2.03261598       3.78256597       5.80969946       0.33096994       0.00028882       0.00022790      -0.00071036
Al       1.91969802       5.77010547       3.82876101      -2.29124618      -0.00159257      -0.00094784      -0.00109639
Cu       0.11940164       3.87176898       7.82322105       3.31648536       0.00002330      -0.00050402       0.00055591
Au       0.05915460       5.83168062       9.71277123       0.58272251      -0.00045972      -0.00055766       0.00056393
Cu       1.96379253       3.83438393       9.79878169       2.85300848       0.00109886       0.00011008       0.00099990
Al       1.98606738       5.86027318       7.82257599      -3.21700231      -0.00025105       0.00012764       0.00054637
Au       0.01352032       3.90770420      11.77715494       0.30273029       0.00042982      -0.00068323       0.00045692
Au      -0.02913504       5.85088470      13.84541278       0.39027321       0.00046845      -0.00013362      -0.00155512
Au       1.92072770       3.83688284      13.78543804       0.18517270       0.00059228      -0.00002407      -0.00085975
Al       1.98671889       5.86730092      11.81668520      -2.75904531      -0.00029819      -0.00080658       0.00108500
Al       0.01544578       7.82743649       0.06742458      -2.95541619      -0.00041864      -0.00144295      -0.00208443
Au       0.04869049       9.78840941       2.05789816      -0.06132303      -0.00128397      -0.00038512      -0.00082911
Al       1.94848456       7.83180818       1.95057585      -2.39936248      -0.00143197      -0.00019131      -0.00145466
Cu       1.98300661       9.84759697       0.01805559       3.02030835      -0.00089862      -0.00002602      -0.00172661
Al       0.06126013       7.76028019       3.95425132      -2.59272762      -0.00050781       0.00039155      -0.00064075
Al       0.05557634       9.74906708       5.92946737      -2.71491400      -0.00040664      -0.00101995      -0.00061700
Cu       1.95972081       7.80629776       5.93009346       3.15297532      -0.00037443      -0.00012735       0.00019428
Cu       1.92766653       9.90082222       3.93820902       3.07867967      -0.00059400      -0.00056231      -0.00110743
Cu       0.00240441       7.72912612       7.76812396       3.57386977       0.00064082       0.00005492       0.00035372
Al       0.01623615       9.79767511       9.71310834      -2.23338270      -0.00037710      -0.00008503       0.00157067
Al       2.01988164       7.90255410       9.78652928      -2.20794084      -0.00225994       0.00096412       0.00193556
Al       1.99486208       9.78845655       7.89533684      -2.12733180      -0.00104414       0.00017646       0.00133583
Al       0.09303438       7.85506695      11.74408698      -2.15452548      -0.00010120      -0.00189095       0.00088047
Au       0.17621478       9.79693359      13.69026966       0.01872187      -0.00115405      -0.00137953       0.00079918
Cu       1.96983268       7.81465802      13.78607852       3.06765405      -0.00013895       0.00005683      -0.00078142
Cu       2.02625929       9.92892651      11.72642255       2.94014268      -0.00179606      -0.00155355       0.00129187
Al       0.10243575      11.85758346      -0.03076410      -3.02850445       0.00015495       0.00070353       0.00020200
Cu       0.08305778      13.78844649       2.02405418       2.86073100      -0.00056906       0.00020724      -0.00129596
Au       1.88720383      11.80807712       1.99523052      -1.07661124      -0.00064076       0.00024001      -0.00136413
Cu       1.99302234      13.84076508      -0.06317318       2.20365524      -0.00146352       0.00087112      -0.00128959
Cu       0.01846227      11.80450469       3.98308206       2.75820383      -0.00070934      -0.00049532      -0.00112790
Au       0.02278135      13.81612589       6.07800023      -1.60852309      -0.00075108       0.00024276       0.00040758
Au       1.86434420      11.80421929       5.94681522       0.07387328      -0.00102608       0.00030437       0.00019852
Au       1.85776157      13.81318886       3.96390999      -0.41083497      -0.00050540      -0.00061269      -0.00024595
Cu       0.03622234      11.89448013       7.89149493       3.24919471      -0.00082232      -0.00014975       0.00103601
Au      -0.04722604      13.79011480       9.70197086      -2.02579689      -0.00021309      -0.00070765       0.00144369
Au       2.02259077      11.86815264       9.82105213      -1.42801119       0.00029710      -0.00071242       0.00156554
Cu       1.92198562      13.82368306       7.92017653       2.65735492      -0.00004546      -0.00069663       0.00173433
Au       0.01463410      11.79976980      11.66600130      -0.44655836      -0.00025171      -0.00034705      -0.00078714
Au       0.03935513      13.82508047      13.59135476      -0.67352713       0.00035383       0.00143423      -0.00043474
Au       2.02748836      11.89774101      13.60197177      -1.27977585      -0.00148763      -0.00010069       0.00002245
Cu       2.04156688      13.78817597      11.72220155       1.98115458      -0.00109781       0.00074756       0.00134650
Au       0.06400492      15.60488348      -0.00518348      -0.52918482      -0.00009965       0.00235280      -0.00126896
Al      -0.01041994      17.67962146       1.98853676      -2.49045213       0.00120363       0.00100052      -0.00130189
Cu       1.90494931      15.65977098       1.92117736       2.70847780      -0.00208573       0.00101257      -0.00088342
Au       1.96746017      17.56636547       0.05570921      -1.24100215      -0.00006051       0.00107407      -0.00081022
Au       0.00440116      15.78951559       3.96992536      -0.32058742       0.00036466       0.00050152      -0.00055647
Cu      -0.09898891      17.59948659       5.87922257       2.87155253       0.00140166      -0.00000282       0.00029554
Cu       1.84917938      15.77151307       5.99948585       2.62489280       0.00074440       0.00019805      -0.00039983
Al       1.96744520      17.65116577       3.93195211      -2.63331229      -0.00076703       0.00045266      -0.00112261
Cu       0.01579547      15.72889431       7.91527454       2.23657676       0.00053261      -0.00066056       0.00070723
Cu      -0.00111438      17.60107725       9.83117664       2.16735212       0.00055486       0.00075554       0.00087844
Au       1.93618303      15.71531368       9.84546938      -2.45945509      -0.00088442       0.00015682       0.00262445
Au       1.84694452      17.64459343       7.84470867      -1.57089436      -0.00075095       0.00099838       0.00087623
Al      -0.06791426      15.70332671      11.67824644      -4.10630470       0.00088399       0.00108777      -0.00043442
Au      -0.00606384      17.57773664      13.65124334      -1.36002738      -0.00053565       0.00013696      -0.00098237
Cu       1.98649601      15.65501144      13.65697816       1.87316018       0.00034190       0.00144599      -0.00002723
Cu       1.90852382      17.62440991      11.69666776       2.01005464       0.00053726       0.00033937       0.00082646
Au       3.86984323      -0.05375041       0.07797267       0.11484652      -0.00098381       0.00137890      -0.00062321
Cu       3.90975989       1.93248254       2.06618417       2.58068621       0.00106382       0.00065189      -0.00078832
Al       5.80613759      -0.04140311       2.00275423      -3.47580993       0.00003761       0.00074178       0.00004607
Al       5.79600265       1.94381083       0.03423738      -2.29672923      -0.00084962       0.00048965      -0.00112470
Au       3.93005803      -0.03583586       3.91738512      -1.42589979       0.00056202       0.00025933      -0.00006647
Cu       3.94473028       1.85579732       5.84241529       2.67314985       0.00121128       0.00102545      -0.00064909
Cu       5.81082810      -0.01716852       5.79065215       1.88015423       0.00003480       0.00041406       0.00021499
Cu       5.81042684       1.88031494       3.95495190       1.75382688       0.00044983       0.00135507      -0.00081581
Au       3.86309524      -0.04458037       7.86919925      -0.98142152       0.00058946      -0.00046174       0.00055562
Cu       3.82937238       1.92694958       9.79769579       2.85775592       0.00216999       0.00090711       0.00098179
Al       5.83720565      -0.00382584       9.84440652      -2.96240981      -0.00034939       0.00029276       0.00042729
Au       5.87337735       1.84291207       7.76145370      -0.29482750      -0.00087784       0.00132941       0.00151547
Al       3.87511690      -0.06267373      11.65483450      -3.29288234       0.00076792       0.00072678       0.00051961
Al       3.92327522       1.90527675      13.70519563      -2.30814175       0.00028933       0.00083643      -0.00068606
Au       5.82155200      -0.10269104      13.64223192       0.27044191      -0.00015601       0.00145291      -0.00010729
Cu       5.87238490       1.95475367      11.77841357       3.11124039       0.00163489       0.00049799       0.00029912
Al       3.94304991       3.85564122       0.07555317      -2.53846196       0.00063477       0.00014554      -0.00126602
Al       3.92010075       5.78045513       2.01931610      -2.26635214      -0.00120555       0.00025960      -0.00085331
Cu       5.78613394       3.74315871       2.11963597       2.95310092       0.00118276       0.00017158      -0.00075282
Au       5.79161146       5.90610236      -0.05043041      -0.20915016       0.00040284      -0.00018656       0.00089141
Cu       3.89473504       3.72417458       3.87374237       2.40331372      -0.00008498       0.00026505      -0.00012507
Au       3.84331045       5.91024669       5.83273888       0.52595897      -0.00070751       0.00055526       0.00053682
Al       5.77886354       3.86706699       5.82500199      -3.01491400       0.00121656      -0.00033280       0.00131192
Al       5.81607173       5.88763515       3.90929343      -2.34752227      -0.00136409      -0.00039623      -0.00033304
Au       3.89872425       3.80810133       7.87109672       0.12577577      -0.00054890       0.00085770       0.00022856
Au       3.87926830       5.86470593       9.79544448       1.00352991      -0.00163442       0.00033042       0.00135603
Al       5.87709959       3.81615532       9.80265158      -2.35711511       0.00037983      -0.00015419       0.00034283
Al       5.84599717       5.89068021       7.84041807      -2.05597080      -0.00134184       0.00026205      -0.00093092
Au       3.91423005       3.83049873      11.75725908      -0.29997431       0.00098874       0.00009449       0.00096981
Cu       3.87512386       5.88421551      13.76801115       2.75721426       0.00126182       0.00028784      -0.00097916
Cu       5.79933758       3.95395020      13.67865782       3.26399565       0.00060600       0.00038524      -0.00033706
Al       5.79952472       5.90610533      11.78836515      -2.60461107       0.00041938      -0.00044575      -0.00042074
Au       3.83891457       7.87641013      -0.05977025      -0.78130206      -0.00058206       0.00061625      -0.00083408
Cu       3.81591187       9.86618908       1.91805933       2.80538850      -0.00178329      -0.00035080      -0.00027561
Au       5.80771617       7.91155201       1.96946034       0.54213687      -0.00108371      -0.00114448      -0.00040396
Au       5.82149900       9.83014290      -0.01196074      -0.33301060       0.00051914      -0.00112334       0.00050059
Au       3.76413017       7.97276292       3.92816286       0.48830204      -0.00099789      -0.00023323      -0.00086574
Al       3.83841432       9.83820509       5.94144632      -2.32457279      -0.00169451      -0.00075128      -0.00051926
Au       5.83848757       7.89856734       5.88026940       0.92029127      -0.00055684       0.00078533       0.00025949
Al       5.87254722       9.83706704       3.91842258      -2.72430372      -0.00069008       0.00053189      -0.00109805
Cu       3.91157938       7.82941468       7.81540947       3.45076227      -0.00046952      -0.00141985       0.00070824
Cu       3.90800745       9.91640275       9.97913239       2.42715104      -0.00021330      -0.00031008       0.00170404
Au       5.72892442       7.99313507       9.81811440      -0.03663064       0.00003771      -0.00011230       0.00124245
Al       5.77986001       9.88677894       7.90909820      -2.54186173      -0.00027978       0.00252983      -0.00033288
Au       3.86870977       7.92093305      11.87825902      -0.66723794      -0.00079118      -0.00053480       0.00085709
Al       3.87239010       9.88471938      13.67762409      -3.72205530      -0.00118616       0.00087096       0.00033060
Cu       5.84781555       7.88105253      13.73619972       2.72566531      -0.00041459       0.00101857       0.00043170
Cu       5.80032596       9.88005064      11.74433005       2.19867425       0.00056036       0.00024413       0.00241670
Au       3.80520366      11.84976149       0.01645098      -0.61383590      -0.00022329       0.00029343      -0.00127296
Al       3.85301298      13.85599535       1.99140676      -3.26229992      -0.00087855      -0.00072905      -0.00256064
Au       5.84650529      11.77536439       1.96508576       0.50007467      -0.00031809       0.00012794       0.00230669
Au       5.77388942      13.84422872       0.01302924      -0.28827700       0.00107584      -0.00058026      -0.00004257
Au       3.84260758      11.75336813       3.92269868       0.34744384       0.00029536      -0.00089299      -0.00198182
Al       3.82466895      13.78401133       5.91313012      -2.22335855      -0.00025407      -0.00019518       0.00114322
Au       5.91131293      11.83688159       5.87047306       0.76813970      -0.00110267       0.00031359       0.00187030
Au       5.91665472      13.74715005       3.90569776       0.72678706      -0.00132445       0.00102017      -0.00166139
Al       3.90141503      11.85259378       7.91767704      -2.25554431       0.00020563      -0.00126692       0.00035417
Cu       3.83649327      13.82818639       9.85481979       2.20606554      -0.00141061      -0.00031938       0.00247622
Cu       5.75888512      11.75566512       9.93885909       2.37340419      -0.00125099      -0.00101946       0.00012494
Al       5.80512810      13.75622158       7.95438244      -2.41226469      -0.00033623      -0.00179183       0.00027534
Cu       3.89826002      11.88047729      11.69088814       1.83098046       0.00017945       0.00002011       0.00202904
Cu       3.80269840      13.82894323      13.66973090       1.90346804      -0.00045726      -0.00085321       0.00049881
Au       5.76645014      11.92233676      13.65408583      -0.56908210       0.00089788      -0.00070935       0.00026272
Au       5.70660452      13.82405525      11.67583490      -1.71534381       0.00014992       0.00007772       0.00023121
Cu       3.79500039      15.68302519       0.00058699       2.12610910      -0.00067880       0.00053217      -0.00105642
Cu       3.86864285      17.54588780       1.94413585       2.42557992      -0.00061119       0.00025857      -0.00085830
Cu       5.83730938      15.77756441       1.99679440       2.88698646      -0.00070659       0.00006144      -0.00062709
Au       5.78165412      17.51244310       0.04984346      -0.55422557       0.00097969       0.00035204       0.00114063
Al       3.86691868      15.77582849       3.96418497      -2.68416812      -0.00163182      -0.00111514      -0.00075593
Cu       3.92343438      17.68750317       5.93350152       2.89709533      -0.00154228       0.00111243       0.00014612
Al       5.83824702      15.68033828       5.84836787      -2.29757646      -0.00130044       0.00024957       0.00018252
Cu       5.79226106      17.68509584       3.92080482       2.60186622       0.00017360       0.00014347      -0.00043274
Au       3.82726370      15.71936786       7.86822538      -1.01201080       0.00068012      -0.00032383       0.00063059
Cu       3.82579651      17.57864752       9.81346721       2.19580117       0.00025022       0.00078769       0.00111255
Cu       5.69650980      15.76060380       9.85808523       2.23679746      -0.00083422       0.00041277       0.00119534
Au       5.81399278      17.62817721       7.84812100      -0.26766266      -0.00089476      -0.00004043       0.00023452
Cu       3.80232429      15.71457929      11.69270129       1.55131684      -0.00035898       0.00033862       0.00138586
Au       3.81429220      17.52699186      13.62094339      -1.13486198      -0.00071790       0.00055615       0.00018535
Al       5.78094896      15.63796129      13.66717972      -3.81190403      -0.00097125       0.00020477       0.00090413
Cu       5.79436555      17.50797612      11.71697216       2.48103448       0.00015227       0.00105172       0.00236251
Au       7.82525175      -0.04450776       0.00556583       0.16178574      -0.00089272       0.00087244       0.00018255
Au       7.76286075       1.87826967       1.98938069      -0.44043874      -0.00070296       0.00057046       0.00007643
Cu       9.77097143       0.04513866       1.94228350       2.33129058      -0.00064672       0.00093516      -0.00035331
Cu       9.78557817       1.85510396       0.05709288       2.57432791      -0.00065300       0.00040348       0.00008012
Cu       7.75051078       0.02932267       3.92247161       2.23159683      -0.00103543       0.00058860       0.00140761
Cu       7.75406095       1.87254997       5.77974727       2.50898843      -0.00173583       0.00091914       0.00032997
Al       9.78751993      -0.04438136       5.81934319      -2.56717440      -0.00169529       0.00130296       0.00001738
Au       9.76374340       1.87168363       3.84930710      -0.66211266       0.00046076       0.00027814      -0.00012066
Al       7.83069770      -0.05783311       7.84690875      -2.28676839      -0.00112788       0.00037866      -0.00041933
Cu       7.84144711       1.94226035       9.79772297       3.44625759      -0.00108509       0.00000001       0.00178648
Al       9.80574112      -0.04783188       9.82527512      -1.75086734      -0.00156454      -0.00112056       0.00024731
Au       9.76957019       1.93087134       7.79798473       0.77691441      -0.00028606       0.00094437       0.00202391
Au       7.80715067       0.03319558      11.72549064       0.06432053      -0.00104478       0.00046587       0.00137910
Au       7.75215953       1.99117444      13.73302310       0.01717251      -0.00113564      -0.00019605      -0.00042104
Au       9.85129557       0.03169456      13.76364464       0.09991172      -0.00035736       0.00128902       0.00067519
Au       9.84285783       2.03015937      11.77389472       0.73064535      -0.00030910      -0.00068177      -0.00192564
Al       7.71926536       3.92262222       0.07385311      -2.36394008       0.00051877      -0.00134898      -0.00184494
Al       7.74834803       5.93462721       1.98729394      -2.49905996       0.00141422      -0.00154336      -0.00041053
Al       9.75367810       3.90114742       1.90931468      -2.24991238       0.00114143      -0.00037514      -0.00007030
Au       9.75117234       6.08396038       0.07839723       0.64992650       0.00226145       0.00082380      -0.00144668
Au       7.73403330       3.83763291       3.92030813       0.00898541       0.00022195       0.00099844      -0.00006350
Au       7.84128611       5.96919395       5.85449856       0.33918488      -0.00002607       0.00203815      -0.00025125
Au       9.79659100       3.90474478       5.80417481      -0.28900502      -0.00022471       0.00121795       0.00053972
Au       9.78199881       5.95864264       3.89996305      -0.48580861       0.00006990       0.00100738      -0.00062585
Au       7.80959166       3.84384687       7.77649408       0.73978568       0.00026993       0.00115841      -0.00001055
Al       7.80980241       5.90992913       9.76985436      -1.30857084       0.00083166      -0.00072289       0.00026241
Al       9.81777071       3.92999153       9.76035126      -2.25409694       0.00059929       0.00005993       0.00081893
Au       9.87655581       5.94975340       7.74173705       0.62682986       0.00067092       0.00058278      -0.00028645
Al       7.77608496       3.91824043      11.74827351      -2.34539193       0.00055006      -0.00089004       0.00154541
Au       7.76715278       5.94202223      13.73653107       0.18967690       0.00056545       0.00001017       0.00040400
Au       9.78537452       3.92746409      13.84376357       0.53367301       0.00001510      -0.00243956       0.00047899
Au       9.82150407       5.84971727      11.76811425       1.36446245       0.00201702      -0.00056463       0.00125351
Cu       7.71801380       7.88163308      -0.01866130       2.98625387       0.00172907      -0.00008288      -0.00013695
Al       7.85630580       9.83532136       2.00979297      -3.24768759      -0.00117109      -0.00062309       0.00261223
Cu       9.78575408       7.89836147       2.01884496       2.92384902       0.00149811       0.00054169       0.00164215
Au       9.72847094       9.75403921       0.04592971      -0.83993667       0.00050968       0.00082325       0.00292603
Cu       7.89926174       7.88953856       3.97482073       3.05107891       0.00020779       0.00233417       0.00094071
Au       7.87718133       9.84425494       5.84736514       0.19289121       0.00445958       0.00430671      -0.00160222
Cu       9.83425248       7.84170827       5.79950493       2.98298427      -0.00212330       0.00031531      -0.00134910
Au       9.80402595       9.82342097       3.95774715      -1.03425990       0.00176468       0.00444810       0.00362918
Al       7.83028669       7.95481948       7.90068821      -1.89512433      -0.00079123       0.00061457       0.00067978
Cu       7.73139540       9.93447651       9.90802701       3.03246233      -0.00246501       0.00137109      -0.00084453
Al       9.86242604       7.92114680       9.78131800      -1.79184946       0.00083835       0.00071551      -0.00268921
Al       9.85256364       9.82533474       7.77416653      -2.18498448       0.00002846       0.00257741      -0.00415037
Au       7.74390983       7.94629857      11.70849146       0.14532004       0.00093612       0.00087819       0.00039876
Au       7.74057546       9.83706396      13.69276424      -0.55544248       0.00224013       0.00273023       0.00111100
Al       9.78632743       7.88595824      13.68695030      -2.63315239       0.00080229       0.00042901       0.00107450
Au       9.81866585       9.90824737      11.73397454       0.54055189      -0.00046583       0.00123582      -0.00432282
Au       7.86471602      11.86276920      -0.04953037      -0.83128150       0.00042587       0.00040835       0.00352941
Al       7.88119964      13.71049141       1.97502013      -2.87396348      -0.00219124      -0.00129206       0.00000163
Cu       9.83128216      11.78068561       1.98963584       2.69039068       0.00021725       0.00177384      -0.00048849
Cu       9.76176189      13.68393532      -0.05884662       2.61861119      -0.00002537      -0.00062887       0.00250278
Cu       7.87249564      11.80700916       3.96555155       2.90972883       0.00310194      -0.00079823       0.00554767
Cu       7.88197280      13.62418912       5.88489376       3.08674115       0.00350967      -0.00302880       0.00187819
Au       9.81103922      13.59583521       3.96997800      -0.28655817       0.00396040      -0.00614762       0.00265211
Au       7.78052095      11.77593346       7.93706540       0.31704612       0.00062320      -0.00077801      -0.00532199
Al       7.76032653      13.79671918       9.84735753      -2.31520061      -0.00124404      -0.00101446      -0.00031629
Au       9.86150218      11.80192165       9.77184140       0.46638269       0.00024544      -0.00073948       0.00518888
Au       9.82282727      13.72623644       7.77711582       0.27740772      -0.00066353      -0.00315968      -0.00454270
Al       7.78270725      11.86012463      11.78351928      -3.07490207       0.00005099       0.00083861      -0.00235012
Cu       7.83584184      13.77396188      13.75901778       2.52214601       0.00049454      -0.00078123       0.00130184
Cu       9.76121208      11.74307880      13.78989412       3.06824255      -0.00019682       0.00101385       0.00186012
Al       9.77363234      13.73371003      11.82320367      -2.04461672       0.00031131      -0.00005092      -0.00171605
Au       7.86886931      15.63226041       0.02746253      -0.20318755       0.00079983       0.00037342       0.00121522
Au       7.80980379      17.67265073       2.09347997      -0.55913758       0.00070919      -0.00109759       0.00079653
Al       9.84453813      15.65091398       2.03534244      -2.23897882      -0.00001525      -0.00255318       0.00267042
Al       9.78265719      17.62855455       0.03837147      -2.52378112      -0.00090542      -0.00048112       0.00148247
Al       7.84574161      15.67012231       3.93226539      -2.31114575      -0.00290612      -0.00069058      -0.00047878
Au       7.74885183      17.72301496       5.72711758       0.08841021       0.00136064      -0.00198705      -0.00089549
Al       9.82360104      15.73079137       5.78061075      -2.15080620       0.00028096      -0.00004970      -0.00012088
Cu       9.79777566      17.77187576       3.81417466       3.12578695      -0.00137577       0.00035836       0.00171172
Au       7.79175681      15.65198175       7.76737919       1.09483175      -0.00116029      -0.00006986       0.00099060
Au       7.74438105      17.46204074       9.91942048       0.24659197       0.00013416      -0.00042230       0.00163586
Al       9.84163050      15.58861421       9.82175045      -1.97788319       0.00022528      -0.00187819      -0.00329824
Al       9.79542174      17.55904120       7.82832899      -1.54616682       0.00045314      -0.00126833      -0.00141208
Cu       7.73420050      15.61285803      11.83011836       2.94936623       0.00094784       0.00061646       0.00017591
Au       7.80377541      17.54195889      13.62944846      -0.23101959      -0.00009865       0.00092982       0.00228618
Cu       9.68058307      15.61119513      13.75722721       3.07044056       0.00047263      -0.00128179      -0.00030597
Al       9.85657217      17.52846306      11.81293281      -2.06554004      -0.00139665       0.00112886       0.00066744
Cu      11.71470589       0.11682800       0.04397608       2.52839407      -0.00063500      -0.00024789      -0.00097078
Cu      11.77391448       1.90480972       1.91183409       2.32778317      -0.00109532      -0.00018944      -0.00267454