399
Lattice="19.59262691714357 -0.0029401591670048664 0.00043227724696582155 -0.0029405439160256983 19.594541571232078 0.002722427805357169 0.0003459403246241731 0.002177382872289726 15.670877927394494" Properties=species:S:1:pos:R:3:energies:R:1:forces:R:3 energy=11.99725295620102 free_energy=11.99725295620102 stress="0.0004395737301232798 3.106946783488804e-05 -7.535600871604179e-05 3.106946783488804e-05 0.00036415773964533943 -0.00021159195179592844 -7.535600871604179e-05 -0.00021159195179592844 0.000567716984859427" pbc="T T T"
Au      -0.02890655       0.03395541       0.06943344      -1.24276859       0.00151479      -0.00119214      -0.00229297
Cu      -0.09602948       1.90006077       1.89359209       2.74164221      -0.00128819       0.00015679       0.00187322
Cu       2.01729511      -0.05524216       1.94692709       3.25141971       0.00122061       0.00129925       0.00029596
Al       1.94494913       1.93598308       0.12651720      -3.33324371       0.00097853      -0.00138087      -0.00012029
Al      -0.07543711      -0.03230927       3.85279738      -2.47244847       0.00022630      -0.00003235       0.00065677
Al      -0.08746654       1.96576719       5.78611197      -1.89254245       0.00106174       0.00050581       0.00098443
Al       1.90932758      -0.00472931       5.81590274      -2.21115406       0.00057844       0.00054730      -0.00107794
Al       1.89321954       1.89069076       3.76984911      -2.83894725       0.00070572      -0.00030645       0.00131865
Al      -0.07928940      -0.03365892       7.75484843      -2.49766728      -0.00157435       0.00204826      -0.00102178
Au      -0.00321743       1.92539472       9.76667552      -0.03377843      -0.00193711      -0.00031555      -0.00082863
Cu       1.89274166      -0.08962132       9.80647186       2.14126236      -0.00026377      -0.00215269       0.00024186
Au       1.91651028       1.88828093       7.85768642      -0.54183334       0.00014528       0.00536421      -0.00276210
Cu       0.02752481      -0.12772082      11.74777977       2.02170918      -0.00096640      -0.00055162       0.00046688
Cu      -0.00641396       1.89210271      13.80431069       2.57538007       0.00104940      -0.00094295       0.00001518
Au       1.86886077      -0.04817985      13.68811890      -0.26923368      -0.00040376       0.00016820      -0.00023703
Au       1.85815192       1.87087272      11.73249376      -0.94275810      -0.00224085      -0.00306883       0.00274053
Cu       0.01907611       3.85484771       0.09904246       2.23768751      -0.00147182      -0.00056617      -0.00136936
Cu      -0.08596050       5.79701367       1.86501637       2.75192859      -0.00158845       0.00029730      -0.00121382
Cu       1.87559173       3.85406535       1.93426981       2.88609131      -0.00037420       0.00058046       0.00242022
Au       1.93373004       5.78958876       0.07883152      -0.35306594      -0.00202485       0.00013698       0.00062155
Al      -0.05554808       3.86666422       3.80102796      -2.52214131      -0.00112318       0.00205033      -0.00083712
Au       0.00752579       5.75865398       5.91964696       0.11988921       0.00161767      -0.00036681      -0.00102023
Au       2.02369508       3.76652986       5.80841124       0.33564789      -0.00039279      -0.00393811       0.00564845
Al       1.91772899       5.76317248       3.83712435      -2.30262735      -0.00146267       0.00152095      -0.00278342
Cu       0.09528225       3.86594357       7.81625432       3.33638032       0.00113763      -0.00371408      -0.00016555
Au       0.05781490       5.82949777       9.70380128       0.56723875       0.00217649       0.00068599       0.00197754
Cu       1.94559045       3.82405131       9.79288605       2.82929661      -0.00004267       0.00096081      -0.00204383
Al       2.00225632       5.80401238       7.82147446      -3.22224981       0.00200514      -0.00025198      -0.00131485
Au       0.00103336       3.91849666      11.77813413       0.32390692      -0.00186299      -0.00074797       0.00046712
Au      -0.03157927       5.86154998      13.84208709       0.38803086      -0.00260560      -0.00102656       0.00165151
Au       1.90618021       3.84549604      13.79492754       0.18371493      -0.00067867      -0.00014906      -0.00028316
Al       1.99169071       5.85739259      11.80627804      -2.75140406      -0.00050937      -0.00024706      -0.00009644
Al       0.01683110       7.83416594       0.06895042      -2.95617846      -0.00033380       0.00073395       0.00159985
Au       0.05116773       9.79226517       2.06458045      -0.06302656       0.00109151       0.00047307       0.00011912
Al       1.94914816       7.83391906       1.95705933      -2.40474120       0.00015727      -0.00080987      -0.00164789
Cu       1.98358927       9.84865664       0.01989558       3.02231324      -0.00016067      -0.00222035      -0.00068502
Al       0.06822923       7.76362047       3.96294586      -2.58523726      -0.00036778      -0.00098702       0.00170521
Al       0.06937585       9.74440047       5.93444546      -2.69436756       0.00074213       0.00238684       0.00083359
Cu       1.97376720       7.77636200       5.94532956       3.11819964       0.00198595      -0.00019272       0.00060431
Cu       1.93879929       9.89937252       3.94037216       3.07518838      -0.00038654       0.00113765       0.00024099
Cu       0.01864649       7.71935996       7.76811605       3.55042564      -0.00040637       0.00029404       0.00020442
Al       0.03073347       9.79108881       9.70933151      -2.23450369       0.00057813       0.00064265      -0.00128208
Al       2.04153227       7.87375704       9.77655235      -2.21571048      -0.00002040      -0.00122941      -0.00101945
Al       2.01181518       9.77915644       7.89893212      -2.11268515       0.00080032       0.00191577       0.00057560
Al       0.10152867       7.85253237      11.73565318      -2.16293969       0.00125965      -0.00091169      -0.00046937
Au       0.18127213       9.79786505      13.68559801       0.01682889      -0.00001696      -0.00052104       0.00056765
Cu       1.96951528       7.81092564      13.78122343       3.07370769      -0.00008959       0.00082692       0.00064561
Cu       2.02768100       9.92232590      11.72003374       2.92789803       0.00193325      -0.00012577      -0.00021765
Al       0.10816236      11.85965820      -0.02901019      -3.02942700       0.00192467       0.00065393      -0.00084729
Cu       0.08623307      13.78485957       2.03035302       2.85524611       0.00201300      -0.00009690       0.00001073
Au       1.89418494      11.80828349       2.00063590      -1.07562498      -0.00039515       0.00093913      -0.00063894
Cu       1.99696840      13.83798759      -0.06756091       2.20605283       0.00268456       0.00139944       0.00083286
Cu       0.02431093      11.80552694       3.98871543       2.74940110       0.00180808       0.00097435       0.00091118
Au       0.03536753      13.82523360       6.09048224      -1.59338398       0.00062055       0.00090585      -0.00063812
Au       1.87229887      11.80534804       5.95195035       0.07233271      -0.00073522       0.00128962      -0.00028532
Au       1.86472766      13.81385850       3.97162274      -0.39853417       0.00166530      -0.00037900      -0.00026107
Cu       0.04762560      11.89508936       7.89421834       3.25569429       0.00027661      -0.00051416       0.00015887
Au      -0.02963514      13.80250051       9.69162628      -2.02697080       0.00074899       0.00110472      -0.00209436
Au       2.03364655      11.86980014       9.81554552      -1.43060187      -0.00003764      -0.00022171       0.00052146
Cu       1.94236381      13.83242992       7.92196780       2.65761980      -0.00007285       0.00042576       0.00095062
Au       0.02321747      11.80425696      11.65510489      -0.44772683       0.00021717       0.00000772       0.00168560
Au       0.04616789      13.82855932      13.58274163      -0.68851953       0.00182085       0.00009407       0.00038708
Au       2.02929206      11.89838055      13.59539857      -1.27169883       0.00036743       0.00125024       0.00061104
Cu       2.04953099      13.79748243      11.71331808       1.96412881       0.00120722      -0.00014791      -0.00086828
Au       0.06443223      15.59646559      -0.00582669      -0.51676402       0.00102556      -0.00150446       0.00112429
Al      -0.01408711      17.66676433       1.98816311      -2.49583790      -0.00022436      -0.00098236       0.00110353
Cu       1.90529597      15.65259448       1.92209528       2.70817235       0.00167333      -0.00026633       0.00180091
Au       1.96418723      17.55699038       0.05723756      -1.25168154      -0.00008826       0.00255552      -0.00039699
Au       0.00933341      15.78624361       3.97742074      -0.30603820       0.00001239      -0.00064856      -0.00022435
Cu      -0.08202439      17.59801335       5.88816233       2.85283270       0.00023036      -0.00036532       0.00006150
Cu       1.86752239      15.78797059       6.01131315       2.58535360       0.00077605       0.00020765       0.00009612
Al       1.96751679      17.64638919       3.93095397      -2.63352766      -0.00018563       0.00299573       0.00052617
Cu       0.05225030      15.76052937       7.91441565       2.19013362      -0.00112437       0.00009328       0.00023412
Cu       0.02270601      17.61574767       9.82014302       2.16158545      -0.00000854       0.00003562       0.00052923
Au       1.95836283      15.74072998       9.83702755      -2.45984506       0.00111256       0.00099375      -0.00173417
Au       1.91202917      17.69629402       7.84399831      -1.55617647      -0.00030926      -0.00145820       0.00073126
Al      -0.05132267      15.71150673      11.66656366      -4.10245401       0.00067423      -0.00075360      -0.00069197
Au      -0.00696352      17.56811202      13.65038690      -1.35662839      -0.00034114      -0.00019324       0.00088678
Cu       1.99290290      15.65608352      13.65182230       1.87704943      -0.00033876       0.00093637       0.00107145
Cu       1.92121166      17.63918612      11.69238492       2.01045110      -0.00004874       0.00083633       0.00040803
Au       3.85975516      -0.05425787       0.08924644       0.09453975       0.00127418      -0.00056802       0.00230919
Cu       3.90178420       1.93765189       2.05418969       2.60445383      -0.00043047       0.00058977       0.00042848
Al       5.81330603      -0.04257447       1.98782101      -3.48912592      -0.00054378      -0.00035000       0.00009640
Al       5.79304463       1.94929472       0.03627694      -2.33326207       0.00066097      -0.00093412      -0.00231343
Au       3.92223419      -0.03985536       3.88361709      -1.48633637      -0.00080498      -0.00314861      -0.00017769
Cu       3.91727165       1.85212124       5.77754786       2.66222335      -0.00297923       0.00025478       0.00092343
Cu       5.80009108       0.02124204       5.74079143       1.78190606       0.00089564      -0.00215969       0.00010391
Cu       5.80998006       1.88073105       3.89921511       1.79673358      -0.00037704       0.00173434       0.00428943
Au       3.93523807       0.07938171       7.82116804      -0.90228942       0.00012377      -0.00160723      -0.00031517
Cu       3.71174317       1.92104281       9.84313443       2.96462536       0.00129586      -0.00061398      -0.00079714
Al       5.82358155       0.18425494       9.80356596      -2.60777212       0.00178188       0.00027886       0.00363868
Al       3.88459644      -0.04419790      11.67117463      -3.32791965       0.00208855       0.00105170      -0.00286587
Al       3.89729618       1.90631218      13.73081969      -2.31953594      -0.00050930      -0.00085972       0.00027848
Au       5.81649162      -0.09102532      13.66740473       0.24578524      -0.00130662       0.00071333      -0.00049050
Cu       5.87043714       1.97036247      11.86139315       3.27208763      -0.00029821       0.00165320      -0.00103405
Al       3.93023803       3.85898874       0.07756641      -2.56473359      -0.00044253      -0.00136843      -0.00019088
Al       3.91218670       5.77846976       2.02249707      -2.28034370      -0.00149816      -0.00139084       0.00021387
Cu       5.78455415       3.75191903       2.09914662       2.97782931      -0.00029579      -0.00048569       0.00251707
Au       5.78543721       5.90348336      -0.04579897      -0.22471354      -0.00071123      -0.00015017      -0.00230505
Cu       3.89622187       3.72119770       3.86922296       2.39683596       0.00304623      -0.00082629      -0.00116723
Au       3.85607777       5.84727897       5.83921266       0.52882244      -0.00062229      -0.00001466       0.00085902
Al       5.79214437       3.75561841       5.85899631      -2.79571892       0.00107370       0.00224851      -0.00420589
Al       5.80864172       5.84970152       3.91971401      -2.39069064       0.00238233      -0.00182806       0.00190374
Au       3.93010243       3.69400481       7.85882454       0.16286936      -0.00651708      -0.00037049      -0.00016517
Au       3.89062908       5.79418443       9.77508625       0.98737044       0.00152509      -0.00110092       0.00412578
Al       5.86750116       3.66378274       9.77359992      -2.13017350      -0.00125916       0.00049121       0.00438471
Al       5.84185951       5.82326353       7.84363255      -2.00019804      -0.00044876      -0.00091778      -0.00049900
Au       3.90494882       3.81506783      11.76984712      -0.31368533       0.00070864       0.00130807      -0.00096530
Cu       3.87277998       5.88062732      13.76900685       2.75430757      -0.00146083       0.00061152      -0.00022107
Cu       5.79327429       3.95125017      13.69479252       3.25679389      -0.00023915      -0.00067829       0.00058961
Al       5.79122287       5.87116491      11.77447909      -2.58875712      -0.00160497       0.00045391      -0.00172816
Au       3.83507853       7.87703420      -0.06052041      -0.77875644       0.00042261      -0.00044658       0.00084144
Cu       3.81666359       9.86283376       1.92578266       2.79002519       0.00012487      -0.00073674      -0.00237569
Au       5.79638122       7.89915858       1.97526904       0.54099297       0.00081362      -0.00051055      -0.00175458
Au       5.81786214       9.82515501      -0.01213324      -0.32553257       0.00118033       0.00076051      -0.00113726
Au       3.76013109       7.94862809       3.94167015       0.50194799      -0.00211053       0.00143986       0.00005185
Al       3.84384842       9.82916638       5.94165735      -2.30148242       0.00125218      -0.00021644      -0.00105819
Au       5.81542401       7.85105034       5.89027264       0.88284933       0.00154408       0.00206657      -0.00179239
Al       5.86423136       9.82276320       3.92136590      -2.71348006       0.00064022      -0.00032750      -0.00002414
Cu       3.91044268       7.78841870       7.80875895       3.44985569       0.00008324      -0.00105306      -0.00077008
Cu       3.91017826       9.90831340       9.98347416       2.42559442       0.00034441       0.00022384      -0.00077043
Au       5.70958964       7.95912146       9.81644213      -0.02227938      -0.00093716      -0.00019747      -0.00127741
Al       5.77088114       9.86260545       7.91296318      -2.53812406      -0.00142673       0.00003435       0.00069876
Au       3.86786589       7.90295525      11.87617570      -0.66986629      -0.00047977      -0.00161575      -0.00157939
Al       3.86956823       9.87885933      13.67133026      -3.72512773       0.00065381      -0.00104051      -0.00056897
Cu       5.84181311       7.87125449      13.73046446       2.71345761      -0.00092314      -0.00190748       0.00266044
Cu       5.79718156       9.86291805      11.74191097       2.18760422       0.00109019      -0.00078463      -0.00011439
Au       3.80548537      11.84491582       0.01369140      -0.61280157       0.00128076       0.00028865       0.00058960
Al       3.85703422      13.85450937       1.99142674      -3.26342065       0.00132968       0.00037662      -0.00009176
Au       5.84440368      11.77707805       1.96669035       0.49316474       0.00010581      -0.00329996      -0.00094883
Au       5.76943500      13.84218070      -0.00090898      -0.29638060      -0.00010238      -0.00074127      -0.00089364
Au       3.85148533      11.75622441       3.93075068       0.35290772      -0.00066304      -0.00106671       0.00023117
Al       3.83807481      13.78668951       5.91787159      -2.22024502       0.00003246      -0.00089045      -0.00001701
Au       5.93728130      11.83037802       5.86739114       0.75251035       0.00040582       0.00071849      -0.00107652
Au       5.91994790      13.75599925       3.91342947       0.70629365       0.00097769       0.00055572      -0.00080526
Al       3.91568248      11.84845001       7.91371540      -2.24224603      -0.00114840      -0.00063298      -0.00031703
Cu       3.84351802      13.83525013       9.85203334       2.20558884      -0.00019198      -0.00021044      -0.00029833
Cu       5.75577427      11.74867466       9.94192411       2.37414694      -0.00025671      -0.00062396       0.00023578
Al       5.80845880      13.75944930       7.95382114      -2.41266836      -0.00145701      -0.00042696       0.00003587
Cu       3.89938032      11.88018169      11.68923545       1.84396534      -0.00111832      -0.00168550       0.00073079
Cu       3.80523023      13.82738251      13.66311086       1.90754541       0.00208384       0.00237719      -0.00086087
Au       5.76651459      11.91432708      13.64794904      -0.56763144      -0.00067204      -0.00070352      -0.00089048
Au       5.70748503      13.82556408      11.67408657      -1.69693379      -0.00201595       0.00116521       0.00154442
Cu       3.79551983      15.67870089      -0.00454724       2.12930783      -0.00053351       0.00188872       0.00078195
Cu       3.86630289      17.53721917       1.94019796       2.44144125       0.00057025       0.00454814      -0.00041986
Cu       5.83450198      15.77468273       1.99273817       2.89123359       0.00089790       0.00073370      -0.00101791
Au       5.77723476      17.50931463       0.04803742      -0.56024803      -0.00054198       0.00000274       0.00077651
Al       3.86960427      15.78050239       3.96809468      -2.67040217       0.00108616       0.00052252       0.00166097
Cu       3.93511551      17.72762499       5.93545573       2.89801159      -0.00086527       0.00158216      -0.00026369
Al       5.83084336      15.71361723       5.85393959      -2.31658145      -0.00134153      -0.00087806       0.00066163
Cu       5.79573076      17.69368676       3.91134531       2.61052348       0.00081554       0.00247598      -0.00038265
Au       3.84774981      15.73531365       7.87080128      -0.98357918      -0.00044208      -0.00184135      -0.00118609
Cu       3.84907587      17.63483723       9.79780428       2.14460568      -0.00318523       0.00156710       0.00089621
Cu       5.70278814      15.78237668       9.86233288       2.20714341       0.00024455       0.00020409       0.00040994
Au       5.79681822      17.68647020       7.86032302      -0.29954621       0.00018221       0.00092987      -0.00130022
Cu       3.81146569      15.73345282      11.68408238       1.56835999       0.00130564      -0.00142375      -0.00024085
Au       3.81380985      17.53340202      13.62381343      -1.13279710       0.00159401      -0.00029750      -0.00221653
Al       5.77743988      15.64720348      13.65173746      -3.80137470      -0.00010903       0.00245337       0.00029273
Cu       5.78423316      17.55688996      11.70460842       2.44356650       0.00132648      -0.00147439      -0.00315818
Au       7.83383826      -0.04779832       0.00680012       0.16513519      -0.00160790       0.00105082      -0.00090603
Au       7.77396808       1.88245005       1.97586782      -0.45440531       0.00102437       0.00131087       0.00228858
Cu       9.77783517       0.03464709       1.93770796       2.33529515       0.00069416       0.00223907       0.00019304
Cu       9.80213252       1.85453940       0.06554271       2.57529063      -0.00057917       0.00051765      -0.00068448
Cu       7.76315695       0.02245224       3.89587660       2.23147536       0.00010739      -0.00140885       0.00155414
Cu       7.78764978       1.88045260       5.70016183       2.55706505       0.00074078      -0.00085176      -0.00191429
Al       9.78159021      -0.02758235       5.81964567      -2.57080369      -0.00117609      -0.00397564       0.00009267
Au       9.78238273       1.87621859       3.82693655      -0.70874204       0.00134450      -0.00045123      -0.00306635
Al       7.67521552       0.16223603       7.79912145      -2.13504537       0.00321785      -0.00048475      -0.00285368
Cu       7.94024034       1.96768947       9.87191145       3.65302828      -0.00008605      -0.00049355      -0.00042616
Al       9.78683300      -0.03294701       9.81468410      -1.79073187      -0.00205352      -0.00050710      -0.00084484
Au       9.81123152       1.93419790       7.80170839       0.86249463       0.00008960       0.00172212       0.00148743
Au       7.79069400       0.05398112      11.74149254      -0.00596308      -0.00212508      -0.00375395      -0.00381768
Au       7.77316429       1.99674795      13.75881415      -0.00418507       0.00069292       0.00280595       0.00017758
Au       9.86014339       0.03462471      13.76763277       0.10620052       0.00147533       0.00231619       0.00186048
Au       9.86868775       2.03899055      11.79421846       0.64311236       0.00466840       0.00197193      -0.00013277
Al       7.72330361       3.93162802       0.07708881      -2.37567797       0.00007874      -0.00375629      -0.00013826
Al       7.74714637       5.93556801       1.98459780      -2.52876411       0.00066142      -0.00108970      -0.00004414
Al       9.76364602       3.91205126       1.90392986      -2.24804280      -0.00089431      -0.00242208      -0.00096681
Au       9.75344682       6.08448867       0.07012776       0.63641185       0.00282452      -0.00115903       0.00003159
Au       7.73469502       3.84226600       3.90359102      -0.02233693      -0.00311789       0.00189899       0.00054509
Au       7.82892085       5.92555329       5.87367929       0.36720921      -0.00194112      -0.00057357      -0.00299268
Au       9.78811726       3.89215049       5.80805348      -0.30501195       0.00148304       0.00204068       0.00199411
Au       9.77892012       5.95639895       3.90991397      -0.50706028      -0.00030337       0.00060407       0.00214392
Au       7.77450519       3.73034239       7.77401263       0.77327584       0.00305127       0.00089908      -0.00033501
Al       7.78676638       5.84286808       9.76471860      -1.28115397       0.00085171      -0.00201586       0.00136310
Al       9.83305122       3.93641937       9.75717571      -2.28142336       0.00154676       0.00096411       0.00021035
Au       9.86350119       5.92362985       7.74487897       0.65035062       0.00272319      -0.00047957       0.00106021
Al       7.77395957       3.91501447      11.76648437      -2.37970757      -0.00146410       0.00182278      -0.00069676
Au       7.75971275       5.93916123      13.73716018       0.17957525       0.00075337      -0.00176060       0.00114236
Au       9.79846217       3.93138915      13.85802763       0.54115515       0.00153406      -0.00148458      -0.00025473
Au       9.82364070       5.83439344      11.77735416       1.36543855       0.00015298      -0.00045966      -0.00044564
Cu       7.71251758       7.87745317      -0.02162869       2.98660857       0.00004156      -0.00132943       0.00069138
Al       7.83869680       9.82435282       2.00117610      -3.21778366      -0.00046045      -0.00094726      -0.00059984
Cu       9.78149683       7.88287692       2.00445839       2.95731037       0.00043419       0.00076992       0.00074958
Au       9.72317078       9.75421898       0.04534918      -0.82835249      -0.00057916      -0.00101833       0.00048533
Cu       7.87496819       7.84987834       3.97507456       3.07796315       0.00010679      -0.00128898      -0.00005373
Au       7.84598794       9.76617490       5.86000042       0.40382958      -0.00234534      -0.00015394      -0.00058736
Cu       9.82598428       7.82816227       5.81140160       2.97650422      -0.00023986       0.00021633      -0.00197119
Au       9.78544227       9.77180512       3.92558404      -0.86283624      -0.00043224       0.00056124      -0.00085861
Al       7.80745515       7.90336949       7.92600701      -1.88632214      -0.00223540       0.00001122      -0.00159785
Cu       7.71819494       9.90973490       9.91268434       3.03199651       0.00010264      -0.00052037      -0.00093495
Al       9.85339294       7.86511914       9.80780726      -1.76695508      -0.00017093      -0.00085899      -0.00045172
Al       9.84034583       9.74326154       7.85214559      -2.21450809      -0.00147594       0.00090661       0.00075946
Au       7.73083766       7.92207593      11.70266864       0.12491259       0.00120468      -0.00111578      -0.00032080
Au       7.73679866       9.82708396      13.68741313      -0.55688877      -0.00171049      -0.00065398       0.00084314
Al       9.78265002       7.88429909      13.68180926      -2.63123259      -0.00001736      -0.00072712      -0.00007750
Au       9.81234761       9.89266026      11.72537553       0.53815797      -0.00114580      -0.00105419      -0.00193047
Au       7.86052518      11.86261372      -0.05538543      -0.81972663      -0.00016652      -0.00030160      -0.00070969
Al       7.86439449      13.72315776       1.96325521      -2.87640325      -0.00079338       0.00056335       0.00045195
Cu       9.82294939      11.78143714       1.99840732       2.65568394      -0.00120375      -0.00156038      -0.00079083
Cu       9.75584209      13.68578499      -0.06636523       2.61702275      -0.00067764      -0.00150805       0.00031772
Cu       7.86987764      11.81297306       3.95592970       3.05446203       0.00133556      -0.00120762      -0.00231120
Cu       7.85723721      13.67780203       5.89908540       3.31437624       0.00017485      -0.00166604      -0.00137196
Al       9.79706537      11.73907070       5.92412974      -2.72697814      -0.00003120      -0.00079467      -0.00037908
Au       9.81186276      13.66551048       3.92354972      -0.02827870      -0.00158017      -0.00152901      -0.00008869
Au       7.76849610      11.76174729       7.95386122       0.49088460       0.00055040       0.00126123       0.00106285
Al       7.75286561      13.79794728       9.85243179      -2.31124119      -0.00056029       0.00185566      -0.00139587
Au       9.85612917      11.79115647       9.76884134       0.51377692      -0.00054955       0.00045235       0.00103132
Au       9.81676197      13.78645543       7.83448440       0.46616299      -0.00042849      -0.00006419       0.00163464
Al       7.78103916      11.84960626      11.77723904      -3.07117582       0.00073333      -0.00001126      -0.00027202
Cu       7.82966321      13.77647913      13.74088424       2.52031616      -0.00082781      -0.00016847       0.00081779
Cu       9.75526943      11.74023254      13.78281962       3.05224253      -0.00103460      -0.00064421      -0.00157357
Al       9.76498569      13.74108582      11.80656612      -2.03668891      -0.00061704       0.00006408       0.00030049
Au       7.86343322      15.63139210       0.00881003      -0.20235562       0.00097337       0.00077639      -0.00034014
Au       7.81151657      17.66605253       2.07875619      -0.54333292       0.00130641       0.00153161      -0.00096695
Al       9.84032453      15.67112286       2.00791129      -2.22941551      -0.00161766      -0.00084332       0.00029184
Al       9.78707781      17.62514570       0.02323264      -2.52129768       0.00023302       0.00199072      -0.00087038
Al       7.83461214      15.70055735       3.94065964      -2.34798892      -0.00044150       0.00126200      -0.00009639
Au       7.72757322      17.76522675       5.75274777       0.08430989       0.00142162       0.00378562       0.00142957
Al       9.80078503      15.74529221       5.81004450      -2.15639624       0.00116988       0.00140185      -0.00031477
Cu       9.79099046      17.77101464       3.82122644       3.08707137      -0.00104630       0.00166842       0.00082314
Au       7.75575761      15.69026298       7.79665399       1.06158114      -0.00066780      -0.00173524      -0.00146525
Au       7.70624757      17.54724772       9.90428428       0.21096798       0.00104874       0.00186436       0.00240797
Al       9.80511102      15.64877000       9.83948101      -1.95660581       0.00060939      -0.00172604      -0.00078494
Al       9.72996512      17.63123928       7.83222903      -1.53283055       0.00024358       0.00103884      -0.00126106
Cu       7.71613722      15.64813147      11.80097864       2.92422400      -0.00021783      -0.00011807       0.00162006
Au       7.79583339      17.54992066      13.62546209      -0.22270950       0.00048037       0.00347099      -0.00002830
Cu       9.67271618      15.61645525      13.73841037       3.07011239       0.00130424      -0.00179358       0.00354537
Al       9.84334263      17.55812785      11.81110712      -2.05793025      -0.00171336      -0.00063484      -0.00170083
Cu      11.72506901       0.10924560       0.04487783       2.53647301      -0.00043116       0.00179533      -0.00036691
Cu      11.78713838       1.90224676       1.91042231       2.32131746       0.00001309      -0.00019720       0.00074694