399
Lattice="19.59262691714357 -0.0029401591670048664 0.00043227724696582155 -0.0029405439160256983 19.594541571232078 0.002722427805357169 0.0003459403246241731 0.002177382872289726 15.670877927394494" Properties=species:S:1:pos:R:3:energies:R:1:forces:R:3 energy=11.915986092101424 free_energy=11.915986092101424 stress="0.0005253829001514058 0.000117665721026911 -9.070436187320998e-05 0.000117665721026911 -2.5054369368259002e-05 -0.00015234980901166742 -9.070436187320998e-05 -0.00015234980901166742 0.0006310013646027526" pbc="T T T"
Au      -0.01711999       0.04161030       0.06512209      -1.22639596      -0.00054360      -0.00140154      -0.00113524
Cu      -0.08418841       1.90106899       1.89469927       2.72839547      -0.00192270       0.00046601       0.00051582
Cu       2.03523915      -0.04865614       1.95283425       3.21294337      -0.00109782       0.00016360       0.00118805
Al       1.96023608       1.93608448       0.11984854      -3.31555103      -0.00165000       0.00004235       0.00014954
Al      -0.07122546      -0.02332644       3.85478843      -2.46872969       0.00048538      -0.00041605       0.00051405
Al      -0.07944049       1.97528450       5.79459223      -1.88188400      -0.00004868      -0.00063156       0.00053956
Al       1.90336689      -0.00559764       5.82611136      -2.18475800       0.00004637      -0.00081853      -0.00180471
Al       1.90356487       1.89004085       3.78436046      -2.80943551       0.00039672      -0.00033239       0.00117583
Al      -0.07848822      -0.02019920       7.75320306      -2.47877708       0.00038115       0.00078362      -0.00052874
Au       0.00320709       1.93000774       9.76092625      -0.02268271       0.00079734      -0.00089540      -0.00096881
Cu       1.87368688      -0.10955264       9.80656804       2.18520849       0.00138442      -0.00039148      -0.00040968
Au       1.94941747       1.90139595       7.87304054      -0.58850779       0.00128199       0.00158541      -0.00067814
Cu       0.03167786      -0.11549231      11.74711171       2.00924434       0.00032470      -0.00054039      -0.00223909
Cu       0.00581152       1.89163486      13.78698040       2.56279237      -0.00179015      -0.00051906       0.00030673
Au       1.87745073      -0.03700899      13.67607094      -0.28144434      -0.00102178      -0.00174057       0.00022172
Au       1.89722584       1.87119742      11.69416322      -0.87879111       0.00046072       0.00074155      -0.00089521
Cu       0.02635433       3.84638910       0.09439549       2.23290513      -0.00114667      -0.00164232      -0.00005432
Cu      -0.08612935       5.79309588       1.85985930       2.75385934      -0.00002407      -0.00091898      -0.00037112
Cu       1.88225395       3.84665208       1.93604379       2.87402498       0.00048646       0.00141681       0.00063269
Au       1.93736672       5.77997946       0.07711207      -0.35634767      -0.00163409      -0.00025987      -0.00114367
Al      -0.05190741       3.86638958       3.80024426      -2.52014010      -0.00109849       0.00138724       0.00041788
Au       0.00840579       5.76329604       5.91696486       0.15196707       0.00016185       0.00084211       0.00130671
Au       2.02576085       3.77628527       5.80630424       0.33409664      -0.00073852      -0.00042201       0.00089908
Al       1.91219985       5.77025923       3.82672691      -2.28860067      -0.00173147       0.00019166       0.00008655
Cu       0.11411315       3.86955809       7.82049624       3.32719792       0.00061408       0.00066684       0.00005648
Au       0.06065570       5.82936535       9.71018620       0.58670487      -0.00043818      -0.00042763      -0.00092324
Cu       1.96240866       3.83177520       9.79928505       2.86267770       0.00025233       0.00134168       0.00071407
Al       1.98370412       5.84876123       7.82185159      -3.22867338      -0.00137605      -0.00021420      -0.00093371
Au       0.01288120       3.90665368      11.77795644       0.30398215      -0.00055547       0.00058017      -0.00220580
Au      -0.02839805       5.85172563      13.84258024       0.38395998      -0.00070863       0.00052123       0.00088828
Au       1.92001956       3.83667941      13.78642242       0.18242133      -0.00050497       0.00009561      -0.00096506
Al       1.98437863       5.86397200      11.81438761      -2.76246975       0.00017073      -0.00023047       0.00006328
Al       0.01502005       7.82862592       0.06506123      -2.96145553      -0.00190456       0.00001961       0.00000502
Au       0.04764844       9.78811266       2.06162631      -0.06112845      -0.00083725      -0.00152147      -0.00046299
Al       1.94375640       7.83155167       1.95061410      -2.39893642       0.00081268      -0.00020026       0.00000235
Cu       1.97777059       9.84787123       0.01923775       3.02740971      -0.00201039      -0.00128020      -0.00036099
Al       0.06659370       7.77024697       3.96672907      -2.59080664      -0.00065415      -0.00101379       0.00112547
Al       0.07280698       9.76104258       5.95199447      -2.73268029      -0.00108541      -0.00108250      -0.00140020
Cu       1.96684197       7.81261125       5.94148355       3.12150751      -0.00045132      -0.00067791       0.00029630
Cu       1.92453767       9.91006092       3.94296934       3.07637929       0.00032197      -0.00001911      -0.00171349
Cu       0.01522491       7.73593601       7.76839072       3.54342929       0.00119786      -0.00040521       0.00005798
Al       0.04547901       9.81045544       9.68922667      -2.25058682      -0.00066606       0.00030880      -0.00015961
Al       2.02370957       7.90172658       9.77631934      -2.21604930      -0.00143446      -0.00152818       0.00130665
Al       2.07148909       9.82472735       7.90687288      -2.06759161       0.00167299       0.00644953       0.00159237
Al       0.10142499       7.85738295      11.73364816      -2.16282266       0.00123417      -0.00101696      -0.00002849
Au       0.17953652       9.79748069      13.68315037       0.00688979      -0.00155767       0.00138743       0.00027438
Cu       1.96438350       7.81080346      13.78533068       3.09013385       0.00053300      -0.00186026       0.00079335
Cu       2.01811116       9.94054313      11.72211589       2.93160597      -0.00068641       0.00226155      -0.00147649
Al       0.09963386      11.85928885      -0.02758750      -3.02500359      -0.00146104       0.00110237      -0.00000144
Cu       0.08569404      13.78973722       2.03024976       2.86397014      -0.00024066       0.00083176      -0.00045096
Au       1.88150592      11.81030972       1.99327799      -1.07626763      -0.00059189      -0.00140001       0.00189673
Cu       1.99136910      13.84169645      -0.06147885       2.21874445      -0.00080651       0.00153777       0.00229785
Cu       0.02788745      11.80407654       4.00038349       2.73628332      -0.00071669       0.00091989      -0.00167913
Au       0.02882866      13.80773232       6.08282552      -1.62018791       0.00033022       0.00033968      -0.00052522
Au       1.88591570      11.81001804       5.97662842      -0.06603287       0.00314159       0.00011173       0.00278249
Au       1.86348726      13.80440988       3.97602665      -0.41260432       0.00123831       0.00083055      -0.00021945
Cu       0.03486463      11.89055989       7.89072885       3.28543643      -0.00003508      -0.00084258      -0.00085237
Au      -0.01950770      13.78119912       9.69004700      -2.04128028       0.00190466       0.00445241      -0.00123061
Au       2.11010215      11.87769073       9.74034680      -1.71431594       0.00834780       0.00095425      -0.00258083
Cu       1.94448682      13.82181481       7.91548784       2.51287563      -0.00063997      -0.00252957       0.00163189
Au       0.06794483      11.80566939      11.62621391      -0.52257703      -0.00442864      -0.00157821       0.00395697
Au       0.04332688      13.82692166      13.58228889      -0.69172035      -0.00116592       0.00034063       0.00225066
Au       2.01801818      11.90044300      13.61768283      -1.28668485       0.00034485      -0.00021719       0.00153883
Cu       2.03660172      13.77991233      11.70956085       1.97397754       0.00084254      -0.00090663       0.00082088
Au       0.06665832      15.60361341      -0.00675088      -0.53301113      -0.00264050       0.00163730       0.00136718
Al      -0.00725740      17.67545540       1.99027013      -2.49503808       0.00024562       0.00121393       0.00094548
Cu       1.90402772      15.65897631       1.92568051       2.70369959       0.00121416       0.00016959      -0.00105412
Au       1.96729596      17.56707962       0.05733263      -1.24049894      -0.00154855      -0.00018371       0.00077871
Au       0.01004238      15.78382313       3.97417762      -0.32907637       0.00015962       0.00026693      -0.00049605
Cu      -0.09625480      17.59905255       5.87785526       2.87561398       0.00074146      -0.00043574      -0.00040662
Cu       1.85691915      15.76425758       6.00216475       2.61612009       0.00042562       0.00002416       0.00116643
Al       1.97002002      17.64858103       3.93559592      -2.64183947       0.00024370       0.00026068      -0.00091898
Cu       0.02249919      15.72745986       7.91222317       2.24014402       0.00107678      -0.00019572      -0.00056173
Cu       0.00109138      17.60391666       9.82883336       2.17439506       0.00070626       0.00064021       0.00103780
Au       1.94065668      15.72329085       9.84110411      -2.46459520       0.00014997      -0.00062010      -0.00123412
Au       1.84782840      17.64807202       7.83973290      -1.56561111       0.00328432      -0.00319444       0.00062077
Al      -0.06181288      15.70327251      11.67115988      -4.11802703       0.00018753       0.00115949      -0.00244707
Au      -0.00315735      17.57689583      13.64953941      -1.37405209       0.00134426       0.00113371       0.00033983
Cu       1.98539295      15.65578664      13.65522050       1.88160840       0.00153872       0.00213265      -0.00136693
Cu       1.90840237      17.62810815      11.69607959       2.01536302       0.00098177       0.00130260       0.00010055
Au       3.86779186      -0.05056728       0.07966606       0.11874501       0.00137596      -0.00230901       0.00005837
Cu       3.91012592       1.93485435       2.06601343       2.58904101      -0.00119638      -0.00007427       0.00018012
Al       5.80341690      -0.03977483       2.00548387      -3.47186899       0.00137539       0.00040304      -0.00069325
Al       5.79434585       1.94484349       0.03646412      -2.29776538       0.00114972       0.00037601      -0.00058986
Au       3.92860281      -0.03284794       3.91676495      -1.43044909       0.00061398      -0.00006576       0.00068670
Cu       3.94427199       1.85743066       5.84040484       2.67481045       0.00095386       0.00096093       0.00049093
Cu       5.81128147      -0.01358209       5.78872553       1.87975309      -0.00065128      -0.00086810      -0.00042211
Cu       5.81128922       1.88291951       3.95477107       1.75723151       0.00068067       0.00024201       0.00120947
Au       3.85904428      -0.03743802       7.86968112      -0.98126586       0.00048407       0.00098331      -0.00123068
Cu       3.82591713       1.92816073       9.79909451       2.86564885       0.00054846      -0.00093318      -0.00115775
Al       5.83442483       0.00381419       9.84584098      -2.96700659      -0.00054368       0.00113400       0.00044263
Au       5.87498325       1.84394518       7.75965496      -0.28915821      -0.00032401       0.00017583      -0.00101026
Al       3.87343412      -0.06032979      11.65545615      -3.29862996       0.00058912      -0.00011655       0.00085948
Al       3.92227830       1.90636059      13.70677501      -2.31173391       0.00004801       0.00114845       0.00006056
Au       5.81863286      -0.10061179      13.64100278       0.27428835      -0.00103415      -0.00178650       0.00095422
Cu       5.86929951       1.95603856      11.77934019       3.12811540       0.00010070       0.00010041       0.00138126
Al       3.94173439       3.85512913       0.07592571      -2.53932311      -0.00108861       0.00096842       0.00032855
Al       3.91566420       5.77802203       2.02150102      -2.27104335      -0.00041791      -0.00028794      -0.00097968
Cu       5.78619310       3.74514655       2.12128359       2.95298132       0.00023196       0.00116340       0.00042632
Au       5.78800544       5.90287981      -0.05307783      -0.21420554      -0.00010999      -0.00110571       0.00022986
Cu       3.89262477       3.72345696       3.87442813       2.40541210       0.00017060       0.00174460      -0.00006242
Au       3.83350047       5.89728500       5.82569755       0.51628516      -0.00096524      -0.00122901      -0.00025641
Al       5.78022618       3.86666107       5.82420097      -3.01640171       0.00106370       0.00332419       0.00080479
Al       5.81201970       5.89073031       3.91296237      -2.36000244       0.00131083      -0.00064755      -0.00062530
Au       3.89600533       3.80269258       7.86925079       0.12332747      -0.00037738       0.00178418      -0.00132169
Au       3.87738354       5.86091911       9.79606109       1.00126898      -0.00243065       0.00052457       0.00058530
Al       5.87458943       3.81044501       9.80237250      -2.36253054      -0.00001658       0.00176310       0.00008060
Al       5.83817645       5.87911091       7.84287599      -2.05769682       0.00008533      -0.00116597      -0.00200367
Au       3.91334534       3.83028608      11.75865512      -0.30631633      -0.00111593       0.00094804      -0.00137826
Cu       3.87296674       5.88171520      13.76624771       2.76369575      -0.00147006      -0.00118887       0.00075547
Cu       5.79722681       3.95453163      13.67715383       3.26945906       0.00048766      -0.00054665       0.00030560
Al       5.79635170       5.90822998      11.78304904      -2.60048708      -0.00033983      -0.00110829       0.00179171
Au       3.83281365       7.87451744      -0.06285928      -0.78401275      -0.00078361      -0.00161294      -0.00094378
Cu       3.81046330       9.86314273       1.91473050       2.80904472      -0.00019224       0.00083505       0.00016789
Au       5.79790862       7.90290042       1.96238723       0.54386598       0.00059718      -0.00065333      -0.00160520
Au       5.81672883       9.82658123      -0.01746601      -0.32917471      -0.00001250      -0.00179261       0.00009494
Au       3.75431636       7.97393559       3.93037772       0.48464912      -0.00054766      -0.00144615      -0.00196671
Al       3.83820950       9.86753165       5.92569829      -2.24074871      -0.00039954       0.00355623       0.00183400
Au       5.80216502       7.89751124       5.90043159       0.87986616       0.00176519      -0.00224587      -0.00222529
Al       5.86638723       9.82680534       3.90412668      -2.72182895       0.00093559      -0.00053534      -0.00007302
Cu       3.90329847       7.80711171       7.80786598       3.48539915       0.00138946      -0.00167037      -0.00151713
Cu       3.89934765       9.91903594      10.02804301       2.34941710      -0.00132707       0.00088018      -0.00032533
Au       5.71064386       8.00948239       9.80750210      -0.07682446      -0.00008886      -0.00132518       0.00370030
Al       5.64394525      10.00163100       7.93586154      -2.50374419      -0.00145292       0.00252497      -0.00010987
Au       3.86141481       7.91554861      11.88252772      -0.68283266      -0.00007964       0.00052865       0.00046605
Al       3.86056765       9.88330123      13.67747515      -3.74178638      -0.00122355       0.00085237       0.00267681
Cu       5.84450345       7.87999434      13.73612483       2.72310364      -0.00092671      -0.00127682       0.00026823
Cu       5.79691605       9.87371611      11.76439494       2.21693308       0.00163997      -0.00129738       0.00123233
Au       3.80454231      11.84821355       0.01921711      -0.61054177       0.00017089      -0.00140598      -0.00214329
Al       3.84861238      13.85858536       1.98649613      -3.27519192       0.00023084       0.00108944       0.00116607
Au       5.84740818      11.77507691       1.95918401       0.49899389      -0.00078854      -0.00019229      -0.00048977
Au       5.76992279      13.84479669       0.00793543      -0.28557194      -0.00099067       0.00045857      -0.00163892
Au       3.84248026      11.75599653       3.90662160       0.33781834      -0.00100113      -0.00051929      -0.00165182
Al       3.83169100      13.72807906       5.95178556      -2.17505099      -0.00013106      -0.00390132      -0.00004232
Au       5.93427339      11.82631560       5.84387595       0.62772027       0.00038651      -0.00149557       0.00592629
Au       5.91072194      13.74824748       3.90052177       0.71939602       0.00164990       0.00044285      -0.00243559
Cu       3.83271502      13.83754409       9.86434773       2.05937269      -0.00175806      -0.00319800      -0.00073372
Cu       5.71593007      11.75896314       9.97991702       2.17382078       0.00053978       0.00040639      -0.00302942
Al       5.70569753      13.62721723       7.97366705      -2.38667915      -0.00246718      -0.00437284      -0.00251867
Cu       3.87244888      11.89335683      11.72138920       1.83462814      -0.00138603      -0.00148190       0.00233234
Cu       3.79610149      13.83034938      13.67180966       1.89730393       0.00208599       0.00038210       0.00013606
Au       5.76457626      11.91795283      13.65607647      -0.57734294       0.00097397       0.00104135       0.00234969
Au       5.69903067      13.82810393      11.68763122      -1.73634830       0.00172089      -0.00041934       0.00462643
Cu       3.79219207      15.68486198      -0.00113583       2.13245435      -0.00026009      -0.00014577       0.00199578
Cu       3.86510107      17.54247711       1.94874506       2.40496983       0.00238728       0.00145930       0.00225748
Cu       5.82704652      15.77974269       1.99279400       2.88345414      -0.00007997       0.00156091       0.00032485
Au       5.77738527      17.51720950       0.05041139      -0.55170942      -0.00179742       0.00295371      -0.00090441
Al       3.86193026      15.75979851       3.98084513      -2.67732481       0.00108729       0.00123921      -0.00222524
Cu       3.92262334      17.69503625       5.93180343       2.90124191       0.00100083      -0.00230847       0.00045194
Al       5.81966653      15.66544466       5.85987192      -2.30819639       0.00144973       0.00229384       0.00176385
Cu       5.78379141      17.68128427       3.92409369       2.58669534       0.00154580      -0.00029207      -0.00100080
Au       3.83438339      15.72896128       7.86531980      -1.04782217       0.00112369       0.00570219       0.00209424
Cu       3.82867604      17.58301177       9.81412986       2.19999755      -0.00017004      -0.00155103       0.00046331
Cu       5.69314660      15.75117703       9.84874716       2.22073300      -0.00125862       0.00155805       0.00207336
Au       5.80946346      17.64296054       7.84748309      -0.27292675      -0.00252758      -0.00443591      -0.00194696
Cu       3.79675383      15.71845054      11.69659756       1.55695664      -0.00018666      -0.00058046       0.00141914
Au       3.81096672      17.53055852      13.62203017      -1.13737361      -0.00039176       0.00184904       0.00052938
Al       5.77624931      15.64310396      13.66961201      -3.81089556      -0.00004529       0.00148786       0.00026494
Cu       5.78644985      17.50433352      11.71416135       2.47683601       0.00037174       0.00158608      -0.00029873
Au       7.82223737      -0.04008940       0.00551362       0.16407782       0.00066933       0.00031276      -0.00000084
Au       7.76147013       1.87866280       1.99526156      -0.44288044       0.00070136      -0.00048501       0.00126046
Cu       9.76857063       0.04436688       1.94544348       2.32922323       0.00039019       0.00112940      -0.00006804
Cu       9.78408203       1.85542752       0.06091833       2.57352584       0.00263811       0.00114966       0.00109908
Cu       7.74820471       0.02409646       3.92803054       2.22080850       0.00020621      -0.00042523       0.00049691
Cu       7.75508234       1.87508512       5.77835757       2.51272517       0.00009420      -0.00034061       0.00093365
Al       9.78247263      -0.05289496       5.82161095      -2.56546133       0.00004525      -0.00066160       0.00155800
Au       9.76170142       1.87144513       3.85442299      -0.66347809       0.00046960       0.00152900       0.00068793
Al       7.83169824      -0.05486280       7.84569137      -2.28459526       0.00160119       0.00062662       0.00051065
Cu       7.84285171       1.94385311       9.79583770       3.45426418       0.00026774       0.00040660      -0.00181924
Al       9.80311421      -0.05090808       9.82202947      -1.75017775      -0.00027138      -0.00074759      -0.00045204
Au       9.77029900       1.93303091       7.79547025       0.77366667      -0.00142902      -0.00096876      -0.00028520
Au       7.80477882       0.03779656      11.72453370       0.06890443       0.00093884      -0.00072347      -0.00088689
Au       7.74794863       1.99203776      13.73214761       0.02005337       0.00224135       0.00042376      -0.00067702
Au       9.84993615       0.03961347      13.76300513       0.10275938       0.00008474       0.00043709      -0.00004711
Au       9.84279342       2.03080173      11.76888856       0.72839179       0.00006520       0.00095975      -0.00026687
Al       7.71776761       3.91848270       0.07298708      -2.36562911       0.00248795       0.00134478      -0.00044475
Al       7.74507619       5.92744268       1.98126298      -2.51472324       0.00276356       0.00082201       0.00104050
Al       9.75334427       3.90147864       1.91287079      -2.24999407       0.00193877       0.00024608      -0.00086261
Au       9.75160956       6.07320800       0.06764715       0.64348812       0.00130189      -0.00106722      -0.00032498
Au       7.73474880       3.84476124       3.92307775       0.01533665       0.00144571       0.00085943       0.00084910
Au       7.83490704       5.98560572       5.86150333       0.32023200      -0.00098171       0.00108586      -0.00058912
Au       9.79464935       3.91383922       5.80515482      -0.29026744       0.00119747      -0.00010430      -0.00086233
Au       9.77924386       5.96633662       3.90289406      -0.49551280       0.00147445      -0.00025633      -0.00210603
Au       7.80999359       3.84647801       7.77441456       0.74193035      -0.00001451       0.00199415       0.00051280
Al       7.80013720       5.90543527       9.77198185      -1.30019031       0.00126004       0.00054974       0.00088864
Al       9.81641230       3.93338854       9.75734736      -2.25415642       0.00045720       0.00041184      -0.00050171
Au       9.86872670       5.96138190       7.74240997       0.62500202       0.00035346       0.00243433       0.00032551
Al       7.77321661       3.91560651      11.74766830      -2.35005955       0.00034690       0.00073431      -0.00150471
Au       7.76263792       5.93884852      13.73305222       0.18377189       0.00143019       0.00103487       0.00030639
Au       9.78532665       3.92019685      13.84403611       0.53024049       0.00091534       0.00049331       0.00035177
Au       9.82067005       5.84033494      11.77521185       1.36879788      -0.00017965      -0.00011587       0.00005830
Cu       7.71779661       7.87564770      -0.02275402       2.98160580       0.00072614      -0.00118876       0.00028740
Al       7.84297794       9.82530533       1.99293905      -3.23575848      -0.00044719       0.00031744      -0.00102921
Cu       9.78336262       7.88219496       1.99583646       2.94991812       0.00194883      -0.00111200      -0.00017470
Au       9.73010010       9.75393039       0.04520748      -0.83431674       0.00009999      -0.00092255      -0.00163416
Cu       7.87793615       7.87053290       3.95926079       3.10253839      -0.00024404      -0.00117572      -0.00190044
Au       7.84370819       9.78335713       5.85243479       0.37332776      -0.00041979       0.00023227      -0.00126629
Cu       9.83453951       7.85069037       5.80279423       2.99550104       0.00152445      -0.00017702      -0.00018832
Au       9.79124271       9.77834964       3.91635265      -0.88507077       0.00066670       0.00025825      -0.00092370
Al       7.78155886       7.96800764       7.92778604      -1.89836644       0.00058828      -0.00062632       0.00118981
Cu       7.70195793       9.93949707       9.91135279       3.01504574       0.00104407      -0.00165397       0.00005811
Al       9.85598272       7.88949632       9.80590347      -1.76365163      -0.00066743       0.00074947       0.00083052
Al       9.85373557       9.75257433       7.84445979      -2.20796758      -0.00016285       0.00023390      -0.00080523
Au       7.73227546       7.94591482      11.70476148       0.13926433      -0.00011765       0.00009930       0.00046189
Au       7.74403693       9.83427276      13.69455320      -0.56037467      -0.00000874       0.00220366       0.00183993
Al       9.78385087       7.88462790      13.68298579      -2.63436106       0.00046841      -0.00118865       0.00071285
Au       9.81381588       9.90455084      11.72721076       0.55030506       0.00023842      -0.00258302       0.00236890
Au       7.86629574      11.86299678      -0.05064026      -0.82993373      -0.00036591      -0.00025526       0.00048542
Al       7.86740296      13.72269802       1.96053925      -2.87792509       0.00026409      -0.00186902      -0.00155929
Cu       9.82919302      11.78063558       1.99263718       2.67181011       0.00060481      -0.00077390      -0.00096667
Cu       9.76188637      13.68776903      -0.05810716       2.60886691       0.00013526      -0.00112975      -0.00074947
Cu       7.87396914      11.81190209       3.94524040       3.06705215      -0.00058321       0.00047045       0.00109950
Cu       7.85621473      13.65783647       5.88799927       3.30231360      -0.00117894      -0.00212643       0.00069892
Al       9.81240523      11.73833411       5.91306468      -2.72833134      -0.00132075      -0.00088303       0.00116932
Au       9.82035011      13.65834318       3.91274078      -0.02875563      -0.00103106       0.00103652      -0.00087646
Au       7.78476974      11.75890855       7.93673763       0.50193905       0.00128385      -0.00156218      -0.00210108
Al       7.73427772      13.78147071       9.84674825      -2.32410866       0.00146697       0.00108285       0.00116268
Au       9.85994607      11.79681396       9.76791597       0.51374531       0.00005954      -0.00011895      -0.00079873
Au       9.82937155      13.78124455       7.82603783       0.48346868      -0.00061110      -0.00214732       0.00194637
Al       7.77966482      11.85742796      11.78486437      -3.07045794      -0.00107478      -0.00009888       0.00284013
Cu       7.83378199      13.77354684      13.75788680       2.52130032      -0.00005229      -0.00086260       0.00054112
Cu       9.76069465      11.74254277      13.78873992       3.06951002       0.00121854      -0.00090302      -0.00123133
Al       9.77044667      13.72891337      11.81880190      -2.04530583      -0.00137844       0.00171633       0.00120715
Au       7.86343054      15.63848527       0.01765518      -0.19086929       0.00177925       0.00168716       0.00101752
Au       7.80454607      17.67801096       2.08942936      -0.54128663       0.00026727       0.00103808       0.00049334
Al       9.84211674      15.67751230       2.00856741      -2.23372650      -0.00114892      -0.00104234      -0.00089624
Al       9.78225317      17.63673115       0.02852239      -2.51931082      -0.00069684       0.00110294      -0.00055662
Al       7.82791232      15.68212460       3.92445868      -2.33974649      -0.00019740      -0.00042285      -0.00045820
Au       7.73812188      17.71276344       5.73571895       0.10534516       0.00021880      -0.00141839      -0.00089262
Al       9.80125624      15.72048552       5.79070108      -2.14566205       0.00042486      -0.00143769       0.00047101
Cu       9.79301423      17.76605322       3.81637606       3.10698038      -0.00001789      -0.00033423      -0.00003124
Au       7.72805891      15.62424251       7.79293448       0.98664523      -0.00062498       0.00222526      -0.00103642
Au       7.73260881      17.46671641       9.92196949       0.24600130       0.00086586       0.00065413       0.00109953
Al       9.82330307      15.60731283       9.85270370      -1.95224588       0.00091900      -0.00113272       0.00021320
Al       9.77450176      17.53597048       7.83426033      -1.54739661      -0.00171312      -0.00106015       0.00044131
Cu       7.72874885      15.61185568      11.82977116       2.94526829       0.00000607       0.00079953       0.00163464
Au       7.79965980      17.54628143      13.62568107      -0.22028712      -0.00195327      -0.00158282      -0.00147117
Cu       9.67837545      15.61118612      13.75224595       3.06313781      -0.00012351       0.00102348       0.00027535
Al       9.85490371      17.54000378      11.81945743      -2.05817825      -0.00001185       0.00051768       0.00025493
Cu      11.71578957       0.12171061       0.04269447       2.53240488       0.00057723       0.00096578       0.00036414
Cu      11.77251276       1.90332312       1.91676110       2.32208246       0.00045876       0.00012052      -0.00083862