399
Lattice="19.59262691714357 -0.0029401591670048664 0.00043227724696582155 -0.0029405439160256983 19.594541571232078 0.002722427805357169 0.0003459403246241731 0.002177382872289726 15.670877927394494" Properties=species:S:1:pos:R:3:energies:R:1:forces:R:3 energy=11.997222137720966 free_energy=11.997222137720966 stress="0.0005650975992964697 0.0001308467584069617 -1.6533506636322246e-05 0.0001308467584069617 9.585414590015702e-05 -0.00011189526742964661 -1.6533506636322246e-05 -0.00011189526742964661 0.0006800363047032488" pbc="T T T"
Au      -0.01850358       0.04315061       0.06412444      -1.22238677      -0.00003503      -0.00068572       0.00166618
Cu      -0.08366598       1.90134456       1.89588839       2.73003253      -0.00107970      -0.00076936      -0.00049318
Cu       2.04001282      -0.04449228       1.94908999       3.20635775      -0.00026905       0.00064671      -0.00109229
Al       1.95746535       1.93454933       0.11858442      -3.32104580      -0.00003909      -0.00024533       0.00052149
Al      -0.07369441      -0.01942326       3.85505329      -2.46189983       0.00204817      -0.00060349       0.00090450
Al      -0.07974883       1.97827763       5.79550579      -1.87656800       0.00067429      -0.00022752      -0.00182620
Al       1.90493321      -0.00627692       5.82848879      -2.18404429       0.00004816      -0.00012836      -0.00082231
Al       1.90788740       1.89009001       3.78548001      -2.80187099      -0.00095431       0.00069312      -0.00132391
Al      -0.07827487      -0.01998008       7.75478329      -2.47474565       0.00011523      -0.00058004      -0.00272160
Au       0.00260777       1.92989926       9.76061580      -0.01983351       0.00053202       0.00069512      -0.00131663
Cu       1.87431515      -0.11008369       9.80916458       2.18469382      -0.00090970       0.00114833       0.00027448
Au       1.95212700       1.90153689       7.87501050      -0.58923851      -0.00302779       0.00138193      -0.00132887
Cu       0.03085289      -0.11618012      11.74719045       2.00967452       0.00035462       0.00135870       0.00034841
Cu       0.00515326       1.89118042      13.78661670       2.56757420      -0.00111310      -0.00072900      -0.00039960
Au       1.87793022      -0.03735741      13.67513284      -0.28067202       0.00105017       0.00299922      -0.00013493
Au       1.89610686       1.87093214      11.69316746      -0.88066375       0.00022522       0.00088821       0.00128494
Cu       0.02535795       3.84329739       0.09394154       2.23409475      -0.00059102       0.00068896      -0.00014886
Cu      -0.08609841       5.78800702       1.85807871       2.75684564      -0.00004587      -0.00000150      -0.00016141
Cu       1.88274421       3.84443787       1.93482095       2.87465648      -0.00099922       0.00144625      -0.00049887
Au       1.93659512       5.77891899       0.07556842      -0.35323745       0.00005153      -0.00097799       0.00036656
Al      -0.05141204       3.86644463       3.80063445      -2.51795316      -0.00097581      -0.00090818      -0.00239066
Au       0.00633835       5.75907822       5.91315262       0.14873382      -0.00079744       0.00021379      -0.00116186
Au       2.03071136       3.77683660       5.80743964       0.33704524      -0.00194857      -0.00032362      -0.00010613
Al       1.91842381       5.76655124       3.82354595      -2.29344270      -0.00106622       0.00126763      -0.00087310
Cu       0.11794852       3.87150392       7.82308416       3.32013878      -0.00006898      -0.00017716       0.00020927
Au       0.05835174       5.83050909       9.71433917       0.58493775       0.00066276       0.00101558      -0.00001138
Cu       1.96263429       3.83312838       9.80184984       2.86006263      -0.00083851       0.00095215      -0.00046093
Al       1.98322135       5.85599801       7.82482628      -3.22018406      -0.00136993       0.00091932      -0.00007824
Au       0.01235610       3.90746602      11.77744874       0.30334743       0.00008892       0.00074286       0.00016466
Au      -0.03058228       5.84989640      13.84510892       0.39094711       0.00059440       0.00001256      -0.00063870
Au       1.91755002       3.83554985      13.78512386       0.18548618      -0.00013131      -0.00130883       0.00148658
Al       1.98643791       5.86512083      11.82015130      -2.75923083      -0.00042289       0.00073177       0.00104383
Al       0.01390558       7.82585657       0.06767150      -2.95553789      -0.00026798      -0.00095701       0.00078352
Au       0.04786823       9.78759878       2.05774539      -0.05382339      -0.00060030       0.00016833       0.00100350
Al       1.94914506       7.83038730       1.94441687      -2.40113670      -0.00056048      -0.00014335      -0.00008314
Cu       1.98724651       9.84092375       0.01697049       3.00652664      -0.00017485       0.00008696       0.00113721
Al       0.06032012       7.75858995       3.95218041      -2.58773543      -0.00053166       0.00079001      -0.00127410
Al       0.05513701       9.74815905       5.92871954      -2.70900375      -0.00094789      -0.00008772      -0.00223069
Cu       1.96103587       7.80386673       5.93108699       3.14290652      -0.00270235       0.00224772      -0.00289817
Cu       1.92972320       9.90040646       3.93670042       3.07272120      -0.00088217      -0.00115607       0.00024133
Cu       0.00277096       7.72774594       7.76756545       3.56378445      -0.00207767       0.00114521      -0.00197630
Al       0.01593086       9.79769664       9.71317710      -2.23185658      -0.00079826       0.00025595      -0.00110279
Al       2.01965326       7.90109351       9.78917932      -2.21124909      -0.00150686      -0.00017460       0.00063582
Al       1.99723460       9.78804924       7.89591096      -2.12289398      -0.00212950       0.00031845      -0.00084300
Al       0.09379424       7.85295129      11.74537483      -2.15457528       0.00059106      -0.00068497       0.00120194
Au       0.17734648       9.79439989      13.69166244       0.01847321       0.00001046      -0.00173262       0.00118650
Cu       1.97042774       7.81122574      13.79042601       3.07323990      -0.00039731      -0.00081566       0.00117877
Cu       2.02542213       9.92745072      11.72719928       2.93802043      -0.00096274       0.00021641       0.00087908
Al       0.10405570      11.85524174      -0.02864810      -3.02314109       0.00075157      -0.00057853       0.00129180
Cu       0.08433748      13.78834963       2.02369812       2.85084404       0.00127046      -0.00019270      -0.00035773
Au       1.88960282      11.80561286       1.99674423      -1.06921976       0.00111330      -0.00057354       0.00015624
Cu       1.99309090      13.84218178      -0.06485367       2.20222878      -0.00025321      -0.00122821       0.00043131
Cu       0.01765449      11.80428015       3.98194269       2.75157521      -0.00043205      -0.00022975      -0.00052998
Au       0.02166590      13.81625130       6.07812585      -1.60310684       0.00036263      -0.00068247       0.00019465
Au       1.86462179      11.80478496       5.94678505       0.07499233      -0.00148857      -0.00021273      -0.00023859
Au       1.85877493      13.81277389       3.96469365      -0.40790372      -0.00027914      -0.00045484       0.00038803
Cu       0.03485461      11.89436097       7.89170242       3.23990146      -0.00061689       0.00034184      -0.00009892
Au      -0.04741378      13.79003907       9.70219701      -2.02331884       0.00040462      -0.00144395      -0.00012178
Au       2.02527884      11.86799942       9.81997941      -1.42556300      -0.00209427       0.00059431       0.00035699
Cu       1.92367731      13.82411645       7.92010325       2.64495945      -0.00066386      -0.00087034      -0.00021465
Au       0.01467024      11.79996695      11.66526747      -0.44719291       0.00061298      -0.00023756      -0.00183521
Au       0.04104232      13.82712513      13.59202354      -0.67296038       0.00036852      -0.00006010       0.00025937
Au       2.02572581      11.89650261      13.60119551      -1.27762748       0.00044727       0.00061184       0.00144874
Cu       2.04146299      13.78942945      11.72203643       1.97904462      -0.00029094      -0.00049753      -0.00015857
Au       0.06750071      15.60938959      -0.00604793      -0.53169060       0.00020677       0.00061483       0.00085296
Al      -0.00857339      17.68145982       1.98709147      -2.48677744       0.00109890      -0.00022598       0.00190875
Cu       1.90545710      15.66276042       1.91994275       2.70714918       0.00094938       0.00030506       0.00058464
Au       1.97268026      17.57352426       0.05507411      -1.24920502       0.00026493      -0.00036110       0.00198001
Au       0.00495245      15.78982461       3.96977316      -0.31788428       0.00133515      -0.00014907       0.00049430
Cu      -0.09866209      17.60137749       5.87869289       2.86693784       0.00045955      -0.00038958      -0.00135303
Cu       1.85063630      15.77179557       5.99995785       2.61424528       0.00082425      -0.00107434      -0.00066456
Al       1.96706979      17.65538948       3.93071578      -2.62812204       0.00115026      -0.00035584       0.00089110
Cu       0.01614090      15.72984110       7.91575793       2.23254579      -0.00001017      -0.00090645      -0.00048569
Cu      -0.00049485      17.60302234       9.83249110       2.16744889       0.00097717      -0.00065758      -0.00069461
Au       1.93669311      15.71717648       9.84598826      -2.45465735      -0.00172365      -0.00079662       0.00173971
Au       1.84746354      17.64616278       7.84532211      -1.56860393      -0.00013273       0.00172143      -0.00103162
Al      -0.06678307      15.70540027      11.67892900      -4.10520141       0.00121168       0.00040944      -0.00008564
Au      -0.00424994      17.57993976      13.65160682      -1.36430953      -0.00122213      -0.00081546      -0.00012933
Cu       1.98980698      15.66069641      13.65717779       1.86407103       0.00086644      -0.00020805      -0.00019317
Cu       1.91085098      17.62736797      11.69813996       2.00522401      -0.00062332      -0.00037218      -0.00025319
Au       3.87792451      -0.03944366       0.07432879       0.11579832      -0.00140839      -0.00027856       0.00162689
Cu       3.91828515       1.93949976       2.05764209       2.57537088      -0.00071320       0.00029347       0.00027405
Al       5.80866037      -0.02810681       1.99583040      -3.48011313       0.00154595       0.00006151       0.00079626
Al       5.82446890       1.97043200       0.01491940      -2.32130118       0.00226368       0.00118054      -0.00055236
Au       3.93158912      -0.02983568       3.91391058      -1.43210931       0.00059353      -0.00010563      -0.00166958
Cu       3.94610652       1.85594437       5.84338019       2.67562377      -0.00247981       0.00080830      -0.00054753
Cu       5.80954358      -0.01289075       5.79061669       1.87512480      -0.00076149      -0.00122329       0.00083661
Cu       5.81022391       1.88634389       3.95084106       1.76428576       0.00039227       0.00042538      -0.00094727
Au       3.86118931      -0.03834956       7.87577788      -0.98609414      -0.00287652      -0.00006879      -0.00110356
Cu       3.82851488       1.92881705       9.80141736       2.87699281      -0.00279716       0.00148906      -0.00012336
Al       5.84331497       0.01342576       9.85787216      -2.95609569      -0.00073367      -0.00171186      -0.00013317
Au       5.87583550       1.84242120       7.76471934      -0.28440932      -0.00141004       0.00321732       0.00119900
Al       3.87750818      -0.05479536      11.65838652      -3.28913973      -0.00008138       0.00051884       0.00149594
Al       3.91923122       1.90677087      13.70816311      -2.31059207       0.00002474       0.00203419      -0.00024268
Au       5.83417601      -0.08052237      13.64112514       0.25485744       0.00150797       0.00103783       0.00015288
Cu       5.88551534       1.96416969      11.80204153       3.13475671       0.00178406       0.00350571      -0.00176610
Al       3.93639492       3.85087410       0.07148493      -2.54856381       0.00203198       0.00029427      -0.00017278
Al       3.92127803       5.77323743       2.00945811      -2.27116285      -0.00151665       0.00031901      -0.00087517
Cu       5.80411549       3.74936682       2.09637463       2.94105166       0.00173159       0.00011912      -0.00056791
Au       5.81534080       5.87184954      -0.05684752      -0.24225779       0.00333976       0.00020358      -0.00101395
Cu       3.89828645       3.72289399       3.86844182       2.40500111      -0.00040020       0.00013477       0.00007681
Au       3.83365159       5.89889298       5.83208012       0.52780980      -0.00196094       0.00097996      -0.00036134
Al       5.77355239       3.86572224       5.83063715      -3.01367149       0.00079349       0.00091059      -0.00041138
Al       5.80858119       5.87610564       3.90401490      -2.36869747       0.00003105       0.00026984      -0.00070134
Au       3.89686034       3.80427607       7.87495498       0.12156059      -0.00258098       0.00078377       0.00191335
Au       3.87672072       5.85901255       9.80134309       0.99733854      -0.00098055       0.00011182       0.00068475
Al       5.87944779       3.80806673       9.81112414      -2.36554130       0.00072021       0.00035567       0.00217143
Al       5.84206232       5.87997427       7.84999324      -2.05526143      -0.00337804      -0.00034910       0.00118617
Au       3.91528245       3.82738415      11.76199028      -0.29646279      -0.00206902       0.00057548       0.00027818
Cu       3.87957482       5.87464360      13.77188187       2.77004802      -0.00043158       0.00009566       0.00103301
Cu       5.80613286       3.94513492      13.68198827       3.27959114       0.00029041      -0.00088757      -0.00138579
Al       5.79823990       5.89925509      11.79796500      -2.61226809       0.00368357      -0.00066538       0.00098134
Au       3.85007534       7.85980676      -0.06457309      -0.78296638       0.00073603       0.00057943       0.00039786
Cu       3.81767491       9.86128289       1.91462258       2.79538771       0.00064497       0.00071424      -0.00020248
Au       5.80746263       7.89393273       1.95820547       0.53207236       0.00060296       0.00161838      -0.00005782
Au       5.81945369       9.82642974      -0.01595242      -0.32091235       0.00030935      -0.00351152       0.00125345
Au       3.75936756       7.96551093       3.92208712       0.48941774       0.00014741       0.00031784       0.00015165
Al       3.84060274       9.83780750       5.93897941      -2.31315056      -0.00113763       0.00017701      -0.00006509
Au       5.81251336       7.87490059       5.88253342       0.91862924      -0.00201901       0.00024841       0.00009828
Al       5.86655997       9.82616034       3.90981325      -2.72151679       0.00065135       0.00226971      -0.00084809
Cu       3.90735577       7.82197661       7.82191277       3.45147576      -0.00326860       0.00132837       0.00090995
Cu       3.90847393       9.91286369       9.98380760       2.42032367      -0.00151365       0.00092877       0.00103608
Au       5.72553277       7.98485792       9.82940934      -0.03709494      -0.00127718       0.00016966       0.00077785
Al       5.77574621       9.87612993       7.91200847      -2.53905600       0.00009047       0.00051788       0.00153987
Au       3.86741760       7.91583292      11.88562813      -0.65932264       0.00040963      -0.00124470       0.00181938
Al       3.87188962       9.88132305      13.67916937      -3.71741008      -0.00034790      -0.00092094       0.00044300
Cu       5.85547195       7.86711450      13.74139184       2.71334313       0.00245957      -0.00376022      -0.00024880
Cu       5.80122154       9.87345676      11.75054115       2.20019032      -0.00053848      -0.00113471       0.00020399
Au       3.80367516      11.84816952       0.01451635      -0.61055257      -0.00126649       0.00037312      -0.00020140
Al       3.85135292      13.85581542       1.98927984      -3.25995433       0.00038441      -0.00128426       0.00033359
Au       5.84290532      11.77599426       1.96251010       0.49513548       0.00060471       0.00216542       0.00129689
Au       5.76984523      13.84447793       0.00688237      -0.28718252       0.00096907       0.00074975      -0.00048375
Au       3.84713218      11.75351630       3.92499927       0.35672466       0.00014512      -0.00069788      -0.00028207
Al       3.83195706      13.78175899       5.91311525      -2.21325892       0.00038696      -0.00091762       0.00078463
Au       5.93854818      11.83191083       5.86270751       0.75191658      -0.00064263      -0.00050792       0.00085103
Au       5.91579600      13.75198794       3.90473626       0.72180991       0.00049379      -0.00039130       0.00063488
Al       3.90830845      11.85074785       7.91411649      -2.23932459      -0.00069380      -0.00030920      -0.00025442
Cu       3.83691356      13.83016043       9.85461889       2.20444114       0.00079774      -0.00160498       0.00031973
Cu       5.75572352      11.75211845       9.94288152       2.36700858       0.00071432      -0.00053354       0.00116812
Al       5.80746485      13.75880479       7.95210671      -2.40601406      -0.00032683      -0.00141252       0.00020708
Cu       3.89671487      11.87976537      11.69271647       1.83386752       0.00028950      -0.00002447       0.00129500
Cu       3.80073454      13.82851252      13.66884297       1.90381588       0.00092735      -0.00060359      -0.00000035
Au       5.76656682      11.92031946      13.65217101      -0.57039629       0.00031076      -0.00047577      -0.00001595
Au       5.70405864      13.82530717      11.67673146      -1.71006137       0.00088086      -0.00083804       0.00153573
Cu       3.79483928      15.68678417      -0.00084330       2.12205382       0.00021299      -0.00013478       0.00030767
Cu       3.87034809      17.55465408       1.94166937       2.41991869       0.00060338       0.00036052       0.00064713
Cu       5.82979221      15.78268645       1.98801444       2.88151682       0.00151392       0.00060456       0.00042381
Au       5.77964249      17.52147915       0.04395577      -0.55336985       0.00209191       0.00068405       0.00027670
Al       3.86505303      15.77881702       3.96120947      -2.67751588      -0.00002403      -0.00061922       0.00105428
Cu       3.92059161      17.69480087       5.93478850       2.89242323       0.00045805       0.00162946      -0.00006355
Al       5.83128553      15.69504324       5.84915725      -2.31535195      -0.00169209      -0.00062058       0.00125720
Cu       5.78966081      17.69310286       3.91666118       2.60195203       0.00091134      -0.00024180      -0.00013660
Au       3.82874986      15.72282196       7.87047690      -1.00468508       0.00203901      -0.00132142      -0.00086556
Cu       3.82565689      17.58461313       9.81761972       2.18633500      -0.00018724      -0.00024523       0.00123914
Cu       5.69748162      15.76852706       9.86269159       2.22780193       0.00066195      -0.00077826       0.00083537
Au       5.80825091      17.64289694       7.85649272      -0.27198146      -0.00118358      -0.00129629       0.00013056
Cu       3.80145507      15.71866035      11.69447121       1.54914486       0.00066621      -0.00020095       0.00126528
Au       3.81887538      17.53779497      13.62096919      -1.12918094       0.00027224      -0.00067429       0.00028463
Al       5.77770419      15.64118261      13.66517881      -3.81388344      -0.00100861       0.00051485       0.00048817
Cu       5.79059257      17.51788314      11.72229157       2.49129896       0.00144148       0.00124117      -0.00058385
Au       7.82476282      -0.03764007       0.00074070       0.15202154       0.00203063       0.00099552      -0.00196728
Au       7.76685518       1.88862390       1.98674744      -0.46536660      -0.00212205       0.00295303      -0.00039872
Cu       9.76537402       0.03336418       1.95701083       2.33686915       0.00125616       0.00039921      -0.00026464
Cu       9.78664146       1.82180521       0.09600302       2.52189806       0.00085453      -0.00163073       0.00110259
Cu       7.74684309       0.03098964       3.92108690       2.22495525      -0.00055302      -0.00072751       0.00004191
Cu       7.75164996       1.86821046       5.78281102       2.51438986      -0.00116846       0.00032833       0.00087418
Al       9.78886090      -0.04994428       5.81906103      -2.56274441      -0.00089587      -0.00183797       0.00120479
Au       9.76063974       1.86611477       3.85735256      -0.66292239       0.00184099      -0.00125052       0.00170995
Al       7.83476813      -0.05546405       7.85561580      -2.28102037      -0.00088161       0.00017900      -0.00035985
Cu       7.85332400       1.95544847       9.80495446       3.46051538       0.00084977      -0.00146704      -0.00088310
Al       9.81198810      -0.02328970       9.84048220      -1.74969686      -0.00122960       0.00049919       0.00173526
Au       9.76878623       1.93112049       7.79095631       0.77802498       0.00037231      -0.00018451       0.00032819
Au       7.82626730       0.06434600      11.73588506       0.06725680      -0.00038856      -0.00130758      -0.00662566
Au       7.81050266       2.00934501      13.73573592       0.11372911       0.00136931       0.00662732       0.00380633
Au       9.86013733       0.04008866      13.76023425       0.12283268      -0.00035651      -0.00514990       0.00350715
Au       9.85457023       2.09169623      11.80644685       0.76865111       0.00395095       0.00374775      -0.00017461
Al       7.84385358       3.91741203       0.00645337      -2.06619776       0.00296626      -0.00073371      -0.00492245
Al       7.74806095       5.91026817       1.97516279      -2.51499129       0.00178659       0.00059937       0.00307016
Al       9.74897559       3.90807943       1.96129891      -2.17253797       0.00155598      -0.00008697       0.00088897
Au       9.74636193       6.08006711       0.06408648       0.70737767       0.00096414      -0.00065532      -0.00200326
Au       7.72607459       3.83509537       3.93292240       0.00678063       0.00026333       0.00398273      -0.00031990
Au       7.83733826       5.97338884       5.85514107       0.33527482       0.00044713       0.00059416       0.00166510
Au       9.79645263       3.90895424       5.80284483      -0.28044310      -0.00004053      -0.00050450       0.00276500
Au       9.78133744       5.96968981       3.90502063      -0.49560633      -0.00169028       0.00099421       0.00273906
Au       7.80800772       3.84569805       7.77280557       0.74323526      -0.00036887      -0.00034990       0.00240803
Al       7.81131830       5.88974431       9.79025502      -1.29258230       0.00184317      -0.00009789      -0.00142018
Al       9.81799285       3.93009203       9.74355913      -2.23298938      -0.00131152      -0.00143467      -0.00043072
Au       9.87630407       5.95346846       7.73840592       0.63080668       0.00055953      -0.00089071      -0.00068971
Al       7.78000224       3.91619700      11.76838318      -2.11555837       0.00395772       0.00043210      -0.00168548
Au       7.78893801       5.92929623      13.73012733       0.28453827       0.00270169      -0.00502007       0.00041275
Au       9.83087212       5.77762564      11.80632809       1.41522394      -0.00162162       0.00142228       0.00112544
Cu       7.71958556       7.87060967      -0.02745515       2.97859297       0.00164900      -0.00196211      -0.00078100
Al       7.84078988       9.82668361       1.99214304      -3.23101045      -0.00064644       0.00045524      -0.00000040
Cu       9.77985764       7.87910060       1.99102159       2.95083932       0.00043546      -0.00159109       0.00030372
Au       9.72727521       9.75292954       0.04248221      -0.83430159       0.00122988      -0.00106722      -0.00181658
Cu       7.87741285       7.86369693       3.95054901       3.10118170       0.00132865       0.00046644       0.00262873
Au       7.85305545       9.77278388       5.85067877       0.39389345      -0.00046521       0.00271952       0.00157642
Cu       9.83838351       7.84781710       5.80138941       3.00920097      -0.00047592       0.00256908       0.00281118
Au       9.79141085       9.77478944       3.91199980      -0.88111136       0.00050430       0.00160677       0.00075554
Al       7.81508842       7.92448084       7.92595586      -1.88336783      -0.00115042      -0.00024258       0.00251512
Cu       7.72707074       9.92020145       9.91820512       3.03239629      -0.00073545      -0.00163409       0.00084013
Al       9.86019234       7.86293476       9.82747824      -1.76039185      -0.00021750      -0.00150620       0.00079429
Al       9.84641316       9.74630425       7.85836107      -2.21671376       0.00106971       0.00000107      -0.00029373
Au       7.74650407       7.92975641      11.71920824       0.16574330       0.00108253      -0.00139146      -0.00032845
Au       7.74170783       9.83642011      13.69085037      -0.55509884       0.00048287      -0.00229504      -0.00048978
Al       9.78797125       7.88649072      13.67709300      -2.59593252       0.00063910       0.00224522       0.00176463
Au       9.81904340       9.90503053      11.72759793       0.52872716       0.00125584      -0.00290976       0.00085223
Au       7.86388885      11.86285540      -0.05074829      -0.82592153       0.00205244       0.00106879       0.00008335
Al       7.86726799      13.72281671       1.95991175      -2.87534323      -0.00032605      -0.00036350       0.00136561
Cu       9.82828496      11.77926608       1.99219808       2.67073605      -0.00010640       0.00224435       0.00023352
Cu       9.76100987      13.68716245      -0.05890800       2.60665956       0.00029619       0.00076248       0.00011232
Cu       7.87328439      11.81234251       3.94841398       3.05279287      -0.00005142       0.00075847       0.00078225
Cu       7.86549792      13.67080039       5.88781363       3.30527968      -0.00032805      -0.00030935       0.00139059
Al       9.80783107      11.73507805       5.91781971      -2.72563584       0.00012834       0.00179994      -0.00033323
Au       9.82105674      13.65860616       3.91348161      -0.03400597      -0.00026150       0.00134420      -0.00020162
Au       7.77658793      11.76766288       7.94945599       0.49575846      -0.00047470       0.00004960       0.00029816
Al       7.75671995      13.80307688       9.85154299      -2.31700545       0.00052376      -0.00015556       0.00234457
Au       9.86273133      11.79998938       9.76920563       0.51147993      -0.00001839      -0.00006546       0.00085399
Au       9.83310542      13.78306662       7.82557235       0.47845566      -0.00013910       0.00170526       0.00150412
Al       7.78237871      11.85947027      11.77976799      -3.07138593       0.00077004      -0.00117238       0.00174205
Cu       7.83571782      13.77325526      13.75669027       2.51862688      -0.00095553       0.00040711       0.00044510
Cu       9.75987499      11.74348635      13.78823087       3.06414569       0.00063128      -0.00280089      -0.00041813
Al       9.77516275      13.73265165      11.82071432      -2.04444668      -0.00041924       0.00022942       0.00048977
Au       7.86386867      15.64034327       0.01542459      -0.19593206      -0.00160105      -0.00138655       0.00051261
Au       7.80513910      17.67950484       2.08699140      -0.55410215      -0.00080648       0.00088716      -0.00167718
Al       9.84381622      15.67903107       2.00653676      -2.23319716      -0.00038737      -0.00307236       0.00187404
Al       9.78386034      17.63914252       0.02798232      -2.52093984      -0.00151211       0.00409780      -0.00091741
Al       7.83497308      15.68694570       3.92373762      -2.33841737      -0.00006089       0.00078122      -0.00044523
Au       7.74585086      17.72877645       5.73066767       0.09330162      -0.00094151      -0.00107605       0.00016294
Al       9.81741234      15.73256622       5.78695056      -2.16264170       0.00074543      -0.00200896       0.00010463
Cu       9.79970485      17.76687772       3.81464655       3.10521023      -0.00287885      -0.00140909       0.00181250
Au       7.77744862      15.67659608       7.78437865       1.07129948      -0.00002356      -0.00240388       0.00057074
Au       7.74158271      17.48308988       9.93575190       0.24715769       0.00007625       0.00252732       0.00200943
Al       9.83693823      15.61787643       9.85329114      -1.95576606      -0.00027977       0.00022034       0.00066578
Al       9.79735306      17.56395820       7.83948678      -1.54910684       0.00138204      -0.00144481      -0.00012079
Cu       7.73190447      15.61743522      11.83307470       2.95118562       0.00046099      -0.00063056      -0.00040996
Au       7.80087741      17.55121969      13.62307072      -0.23377977      -0.00050827       0.00319143       0.00100935
Cu       9.67915747      15.61372463      13.75271587       3.06499899       0.00060880       0.00004011      -0.00010152
Al       9.86103367      17.54367880      11.82234129      -2.06004080       0.00066874       0.00171463      -0.00121407
Cu      11.71745709       0.13456626       0.03416990       2.52611547      -0.00085634       0.00396073      -0.00112250
Cu      11.76580508       1.91469779       1.91391667       2.31979712       0.00030630      -0.00028919       0.00065616