399
Lattice="19.59262691714357 -0.0029401591670048664 0.00043227724696582155 -0.0029405439160256983 19.594541571232078 0.002722427805357169 0.0003459403246241731 0.002177382872289726 15.670877927394494" Properties=species:S:1:pos:R:3:energies:R:1:forces:R:3 energy=12.052299217622863 free_energy=12.052299217622863 stress="0.0004898911564990491 0.0001681679496291615 -2.9997734351053857e-05 0.0001681679496291615 0.00018816606338703835 -0.0003027248431980439 -2.9997734351053857e-05 -0.0003027248431980439 0.0008182235569321782" pbc="T T T"
Au      -0.01641640       0.04280748       0.06255228      -1.23059051      -0.00038902       0.00104286       0.00010734
Cu      -0.08015194       1.90007546       1.89187834       2.72019328      -0.00120700      -0.00014397       0.00051960
Cu       2.04308857      -0.04960792       1.94507218       3.20401652       0.00084767       0.00128602      -0.00030166
Al       1.97584848       1.92222947       0.11663093      -3.30849751       0.00048824      -0.00170892       0.00081522
Al      -0.07148033      -0.01991374       3.85495543      -2.46019627      -0.00149340       0.00032235       0.00170493
Al      -0.07829597       1.97570850       5.79660888      -1.87793277      -0.00086350       0.00132836       0.00046284
Al       1.90252403      -0.00741287       5.82960861      -2.18775008      -0.00216540       0.00308473       0.00138162
Al       1.90506902       1.88689075       3.78370290      -2.80635623      -0.00033083       0.00284088       0.00196195
Al      -0.07769341      -0.02138578       7.75583466      -2.47223040      -0.00004548       0.00049854       0.00027735
Au       0.00616448       1.92797776       9.76336768      -0.02190730       0.00106725      -0.00023602       0.00010551
Cu       1.87780291      -0.11264313       9.81263859       2.17772922      -0.00104722       0.00087679      -0.00198405
Au       1.95154319       1.90107172       7.87508319      -0.58684288      -0.00143179       0.00194098       0.00046087
Cu       0.03437426      -0.11747105      11.74945641       2.00654285       0.00002347       0.00031168      -0.00022421
Cu       0.01034197       1.88673399      13.78569840       2.55645451       0.00009971       0.00053189      -0.00032038
Au       1.88584123      -0.04625674      13.67798196      -0.27442175       0.00094147       0.00136415      -0.00140246
Au       1.90127821       1.86551677      11.69717005      -0.88793956      -0.00078582       0.00094834       0.00074904
Cu       0.03158594       3.83680393       0.09199582       2.22016222       0.00039099       0.00156424       0.00032615
Cu      -0.08358874       5.78837290       1.85493934       2.74997092       0.00006732      -0.00018547      -0.00040419
Cu       1.88448816       3.84008575       1.93163235       2.86396396       0.00040528       0.00051928       0.00007498
Au       1.93999985       5.77916182       0.07578047      -0.35210455       0.00095909       0.00042245      -0.00088391
Al      -0.05006686       3.86442757       3.79919941      -2.51481670      -0.00069290       0.00025704      -0.00064552
Au       0.00837258       5.76149120       5.91451883       0.14595829      -0.00041244       0.00192579      -0.00014454
Au       2.02787820       3.77703653       5.80760457       0.32993502      -0.00207444       0.00037442      -0.00001678
Al       1.91438281       5.76765639       3.82215569      -2.28763404      -0.00050436       0.00080498      -0.00060340
Cu       0.11795930       3.87094333       7.82376166       3.31628537      -0.00010958       0.00100285       0.00045378
Au       0.06040832       5.83045553       9.71537624       0.58616023      -0.00015873       0.00099013      -0.00080231
Cu       1.96429934       3.83093647       9.80273945       2.85694656      -0.00031551       0.00120301      -0.00011532
Al       1.98427291       5.85654197       7.82427027      -3.21589359      -0.00077893       0.00250671       0.00012742
Au       0.01653910       3.90466353      11.77961559       0.29943093       0.00046624       0.00056854       0.00018939
Au      -0.02637899       5.84811144      13.84622881       0.39132576       0.00064509      -0.00028351       0.00010571
Au       1.92414835       3.83079589      13.78761306       0.17686558       0.00023683       0.00028585      -0.00021008
Al       1.98758249       5.86482116      11.81997778      -2.76077422       0.00052096       0.00082679      -0.00045260
Al       0.02138702       7.83033364       0.06589853      -2.94359562      -0.00114576      -0.00041070       0.00037520
Au       0.05363776       9.79484027       2.05714653      -0.05804963      -0.00084431       0.00110464      -0.00011497
Al       1.95131363       7.83895494       1.94458358      -2.38575972      -0.00020181      -0.00040827      -0.00045247
Cu       1.99742205       9.86402583       0.01568423       3.00156699      -0.00055868       0.00208940       0.00048972
Al       0.06472299       7.76452470       3.95263718      -2.58317002      -0.00012942       0.00071125      -0.00098534
Al       0.05880956       9.75150987       5.92700353      -2.70607545      -0.00055066      -0.00100627      -0.00016527
Cu       1.96230548       7.80727746       5.93102432       3.14262927       0.00050005       0.00122091      -0.00041273
Cu       1.93652082       9.91245099       3.93120140       3.07452635      -0.00015710      -0.00078499       0.00003914
Cu       0.00399668       7.72987460       7.76804231       3.56025907       0.00018541       0.00075304      -0.00036158
Al       0.01937212       9.80072516       9.71309796      -2.22970722       0.00034468      -0.00063149      -0.00038951
Al       2.02134504       7.90412666       9.78901365      -2.20583183       0.00083610       0.00041831      -0.00034012
Al       1.99981102       9.79157083       7.89432986      -2.12460894       0.00101770      -0.00130505      -0.00143771
Al       0.09614768       7.85545611      11.74630645      -2.15410508      -0.00013339      -0.00009271      -0.00078403
Au       0.18136368       9.80003696      13.69363656       0.01355845      -0.00147005       0.00009301      -0.00034643
Cu       1.97057125       7.81771025      13.78624955       3.07923900      -0.00050530       0.00121051      -0.00009670
Cu       2.02903187       9.93350754      11.73261169       2.93488240      -0.00069991      -0.00071329       0.00098598
Al       0.10268872      11.86012749      -0.02791023      -3.03010552      -0.00099004      -0.00044968       0.00097396
Cu       0.08329275      13.78726640       2.02332695       2.85994132      -0.00096631       0.00052989       0.00232360
Au       1.89848173      11.81416821       1.98697239      -1.08936312       0.00210519       0.00074785      -0.00097954
Cu       1.99106219      13.84701715      -0.06086351       2.21353846      -0.00083577      -0.00088945      -0.00064379
Cu       0.02108705      11.80576505       3.97832886       2.75298807      -0.00111049       0.00073932       0.00109815
Au       0.02392751      13.81549027       6.07689624      -1.60821546      -0.00063235      -0.00081588       0.00025670
Au       1.86891953      11.80588836       5.94188084       0.07600416      -0.00106895       0.00011318      -0.00068910
Au       1.86036531      13.80881690       3.96062351      -0.41320337       0.00009557       0.00192179      -0.00027403
Cu       0.03920253      11.89528357       7.89032874       3.23840028      -0.00080679      -0.00145197       0.00061012
Au      -0.04471820      13.78936186       9.70250418      -2.01969421      -0.00030483      -0.00141866      -0.00153256
Au       2.02954854      11.87040620       9.82247313      -1.43055949      -0.00209743      -0.00055491       0.00005487
Cu       1.92452964      13.82225320       7.91854997       2.64927212      -0.00013538      -0.00041324       0.00120733
Au       0.02093585      11.80177488      11.66752719      -0.45059006      -0.00063877       0.00081756      -0.00150673
Au       0.04150329      13.82726564      13.59249889      -0.67851740      -0.00020751      -0.00074630      -0.00037828
Au       2.03239750      11.90413431      13.61170035      -1.28428275       0.00247697       0.00010254       0.00065319
Cu       2.04684256      13.79008693      11.72683752       1.97605350      -0.00126846      -0.00233492      -0.00002841
Au       0.06030798      15.60646150      -0.00366495      -0.52731405      -0.00013975       0.00065381       0.00001435
Al      -0.01037756      17.68121662       1.98865166      -2.49128227      -0.00078936       0.00082264       0.00144754
Cu       1.90470566      15.65923305       1.92189038       2.70695726      -0.00066835       0.00265501       0.00158438
Au       1.96308503      17.56542420       0.05641180      -1.24631662      -0.00043182      -0.00135067       0.00295496
Au       0.00816592      15.78810502       3.96944674      -0.32151067       0.00018807       0.00106004       0.00264423
Cu      -0.09728645      17.60022080       5.87818123       2.86938726      -0.00126676       0.00047676       0.00170155
Cu       1.84879146      15.77074315       6.00109957       2.62421352      -0.00107402      -0.00142132       0.00044181
Al       1.96305524      17.65859824       3.92911390      -2.62832976      -0.00130539       0.00023056       0.00185764
Cu       0.01700859      15.72824167       7.91581552       2.23216949      -0.00071561       0.00046098       0.00064597
Cu       0.00163999      17.60249237       9.83364678       2.16728758      -0.00028307      -0.00163003      -0.00092554
Au       1.93798619      15.71517646       9.84729597      -2.45443409      -0.00346223      -0.00111254      -0.00100209
Au       1.84649432      17.64506148       7.84658004      -1.57569635      -0.00051991       0.00053548       0.00039026
Al      -0.06494185      15.70421131      11.67855773      -4.10989739      -0.00026667       0.00130459      -0.00048633
Au      -0.00699907      17.57902929      13.65149066      -1.37119140      -0.00028977      -0.00081293      -0.00172794
Cu       1.98556243      15.65879763      13.65848147       1.87700551       0.00180113      -0.00150946      -0.00086500
Cu       1.91364594      17.62224093      11.70306848       2.00347747       0.00101919       0.00054747       0.00001138
Au       3.89401290      -0.08436115       0.07611544       0.10532103      -0.00267965      -0.00041954       0.00134446
Cu       3.91380318       1.92769143       2.06231676       2.58548541       0.00031463      -0.00195422       0.00238831
Al       5.80554154      -0.05169542       2.00342854      -3.47771251      -0.00468395       0.00080651       0.00282435
Al       5.79317392       1.94085182       0.03830641      -2.30203199       0.00048579      -0.00206907       0.00031372
Au       3.92678137      -0.03044621       3.91795855      -1.43594266       0.00305423      -0.00185132       0.00008540
Cu       3.94381163       1.85705319       5.84358503       2.67496441      -0.00001621       0.00242739       0.00055761
Cu       5.80799153      -0.01095076       5.79396350       1.88180726       0.00045312      -0.00049549      -0.00021123
Cu       5.81116212       1.87985282       3.95322288       1.75457610      -0.00130626      -0.00092915       0.00100309
Au       3.85909945      -0.03918852       7.87297786      -0.99005066      -0.00039033       0.00073210      -0.00007682
Cu       3.82771059       1.92212756       9.80224633       2.86079489       0.00077579       0.00322273      -0.00108620
Al       5.83811711      -0.00118404       9.84925135      -2.97111453       0.00044687       0.00175631       0.00242080
Au       5.87508175       1.84246142       7.76426924      -0.28652231       0.00039668       0.00293124      -0.00032280
Al       3.88227456      -0.06900904      11.66513250      -3.29415042      -0.00036717      -0.00026764      -0.00210336
Al       3.93081270       1.89444054      13.70879369      -2.30833452       0.00106114      -0.00214173       0.00142931
Au       5.83151297      -0.12579178      13.65987470       0.27583580      -0.00256942       0.00364165      -0.00246412
Cu       5.87612591       1.94475063      11.78624717       3.11018767      -0.00068260      -0.00068211       0.00021873
Al       3.94323257       3.85294958       0.07373248      -2.54094850      -0.00023979      -0.00053177       0.00099323
Al       3.91411662       5.77567909       2.01695004      -2.26603000       0.00083691       0.00028508       0.00034939
Cu       5.78558513       3.74162647       2.11876885       2.96117685      -0.00081796       0.00048524      -0.00047325
Au       5.78781719       5.90141696      -0.05236541      -0.21188333       0.00170693      -0.00059741      -0.00084873
Cu       3.89176051       3.71831179       3.87182501       2.40295302       0.00108972       0.00120961       0.00090914
Au       3.83282476       5.89961087       5.82780352       0.52634003      -0.00003552       0.00021414      -0.00030833
Al       5.77988446       3.86441450       5.82618343      -3.01233907       0.00004271       0.00071624       0.00076995
Al       5.80919837       5.87624276       3.90519146      -2.36421491      -0.00015300      -0.00027441       0.00058010
Au       3.89609181       3.80372508       7.87214839       0.12575022       0.00016595       0.00157933       0.00044466
Au       3.87560923       5.85992943       9.79914442       1.00393050       0.00025864       0.00121664       0.00057864
Al       5.87542421       3.80692526       9.80625781      -2.35495087       0.00068735       0.00225732       0.00049923
Al       5.83873051       5.88182012       7.84298081      -2.05178105      -0.00006967       0.00035336       0.00037549
Au       3.91537486       3.82372696      11.76094875      -0.29997916       0.00068924       0.00010817       0.00117902
Cu       3.87296623       5.88185780      13.76850826       2.76936947       0.00108036       0.00019451      -0.00063643
Cu       5.79845210       3.94903106      13.67974920       3.27647718      -0.00040086      -0.00037446       0.00112840
Al       5.79405191       5.90262028      11.79090703      -2.60504640       0.00015783      -0.00019911       0.00050449
Au       3.83811921       7.87814123      -0.06445102      -0.78790382       0.00166655       0.00091553       0.00052974
Cu       3.82701921       9.87949827       1.91035070       2.78775656      -0.00127201       0.00168577       0.00001312
Au       5.79920764       7.90062000       1.96436402       0.54248785       0.00130730       0.00135247      -0.00161022
Au       5.81960321       9.83511983      -0.00886589      -0.32626740      -0.00028019      -0.00098488      -0.00087356
Au       3.75792333       7.97255569       3.92304880       0.49104468       0.00148338      -0.00030730      -0.00002277
Al       3.84445441       9.84650200       5.93270491      -2.30898832       0.00102838      -0.00066705      -0.00173132
Au       5.81459045       7.88021117       5.87413018       0.91035938      -0.00011508      -0.00197987      -0.00074131
Al       5.86931065       9.84297729       3.89760113      -2.71610454       0.00077915       0.00077885      -0.00083629
Cu       3.90643754       7.82505726       7.81471623       3.44388752       0.00026925      -0.00021697      -0.00067053
Cu       3.90785519       9.92067954       9.98521984       2.42778009       0.00048341      -0.00154351       0.00015846
Au       5.71917529       7.99193993       9.82478642      -0.03514815       0.00048509      -0.00003328      -0.00058793
Al       5.77432161       9.88192711       7.90674981      -2.53085217       0.00088469       0.00014185      -0.00103373
Au       3.86587427       7.92404638      11.88589596      -0.67865527       0.00181918       0.00018031       0.00026474
Al       3.88115048       9.89750353      13.68159219      -3.72819282      -0.00107144       0.00257217       0.00102243
Cu       5.84603371       7.88161331      13.73898661       2.72696185       0.00217465       0.00100004       0.00056567
Cu       5.79931458       9.88554461      11.75216200       2.18593287       0.00050207       0.00061844       0.00026062
Au       3.83205160      11.88582595       0.01510123      -0.60468714      -0.00062757       0.00406220      -0.00065009
Al       3.86522372      13.86624092       1.98334219      -3.28302594      -0.00082646       0.00098771      -0.00177995
Au       5.87122638      11.81498960       1.94543175       0.46772833       0.00095152       0.00283449       0.00413449
Au       5.81950620      13.91893902       0.00750171      -0.22162920      -0.00295537       0.00034427       0.00166395
Au       3.85939530      11.76469210       3.91231213       0.35343074       0.00023542       0.00192787      -0.00168929
Al       3.83510770      13.77746198       5.90941011      -2.20714864       0.00066808       0.00209067      -0.00040718
Au       5.94345064      11.84087681       5.85342326       0.76203654       0.00108633      -0.00181959      -0.00034506
Au       5.93470068      13.76304640       3.89528074       0.64158922       0.00073551      -0.00218022      -0.00336188
Al       3.90811833      11.85280474       7.91114331      -2.23813038       0.00040822      -0.00064011       0.00040065
Cu       3.83773150      13.82920724       9.85456211       2.21185383       0.00053536      -0.00207259      -0.00052829
Cu       5.75488999      11.75596380       9.94084732       2.36732068       0.00111995      -0.00042706       0.00075663
Al       5.80581107      13.75684449       7.95071680      -2.41190171       0.00069683      -0.00056207      -0.00019793
Cu       3.90229933      11.88441959      11.70098711       1.82745682      -0.00157810       0.00036402      -0.00011554
Cu       3.80891554      13.84036475      13.67842987       1.90985265      -0.00134473       0.00074195       0.00077641
Au       5.77867825      11.94777788      13.67323529      -0.56203429       0.00149427       0.00272645      -0.00077606
Au       5.70614839      13.82505879      11.67418654      -1.71364630       0.00055070       0.00214298       0.00206622
Cu       3.79481529      15.68849316       0.00372163       2.15871195       0.00100950      -0.00032498      -0.00290019
Cu       3.86896545      17.54654194       1.94184186       2.41094269      -0.00243442      -0.00042187      -0.00093589
Cu       5.78885470      15.80515432       2.05263732       2.90430160      -0.00057637       0.00046761       0.00179877
Au       5.83076460      17.45881476       0.06105139      -0.50265629      -0.00446408      -0.00094480       0.00406804
Al       3.84633508      15.77800648       3.97785407      -2.71686114       0.00004622       0.00118011       0.00054511
Cu       3.91383397      17.69488945       5.93672680       2.91020897       0.00077970       0.00147232       0.00173276
Al       5.82551916      15.69262284       5.84763740      -2.32928715      -0.00154925       0.00110473       0.00200894
Cu       5.78188875      17.69494323       3.93768056       2.61461685      -0.00020309       0.00075269       0.00124171
Au       3.82577581      15.71863670       7.86769493      -1.01120235       0.00088117      -0.00086678      -0.00003029
Cu       3.82473087      17.58045233       9.81540764       2.19455087       0.00120725       0.00136521       0.00085214
Cu       5.69416891      15.76411106       9.85802181       2.23381168       0.00083883      -0.00031626      -0.00100187
Au       5.80460134      17.63779084       7.84970518      -0.27338307      -0.00006769       0.00029485       0.00177500
Cu       3.80408463      15.71732326      11.69445951       1.55168886       0.00007506       0.00055521       0.00316409
Au       3.82589840      17.51786695      13.63506809      -1.13814116      -0.00308095      -0.00426863      -0.00195207
Al       5.78930232      15.63752094      13.65947164      -3.56905624      -0.00408980      -0.00151820      -0.00874819
Cu       5.79861873      17.50821644      11.72103566       2.50433273      -0.00117849      -0.00546715       0.00243994
Au       7.81660737      -0.05052010       0.01648233       0.16692780       0.00290491       0.00398953      -0.00132066
Au       7.75999272       1.87752482       1.99217341      -0.44933444      -0.00104342      -0.00066666       0.00070374
Cu       9.75892938       0.02673234       1.93430741       2.29568673       0.00067356      -0.00129412      -0.00001681
Cu       9.77891059       1.85439596       0.06278477       2.57638945      -0.00254622      -0.00210638      -0.00023038
Cu       7.75029927       0.02715431       3.92180153       2.24231929      -0.00026905       0.00048322       0.00302197
Cu       7.75589868       1.87135788       5.77893841       2.50416472      -0.00114603       0.00050518       0.00138859
Al       9.79002121      -0.04640166       5.81661105      -2.56214247      -0.00131261       0.00148590       0.00045214
Au       9.76455422       1.86857559       3.84471774      -0.65001598       0.00009761      -0.00163572      -0.00082802
Al       7.83297891      -0.05656050       7.84921403      -2.28923470      -0.00049467      -0.00017610       0.00087801
Cu       7.84273186       1.93357030       9.80751707       3.43324369       0.00007577       0.00090410       0.00042096
Al       9.80222089      -0.05564196       9.83197135      -1.75519341      -0.00021943       0.00180435       0.00192452
Au       9.77012106       1.92809852       7.79996228       0.78050551      -0.00065942       0.00262159       0.00082123
Au       7.80577588       0.01309614      11.74448348       0.06984030      -0.00057896       0.00110384       0.00048432
Au       7.74903706       1.98431162      13.73878961       0.01220707      -0.00284025      -0.00327221       0.00076342
Au       9.83601402       0.01630586      13.78293581       0.07537145      -0.00027751       0.00006725       0.00179175
Au       9.83781226       2.01775926      11.78031130       0.72935541      -0.00201392      -0.00165734       0.00082169
Al       7.71742716       3.91777759       0.07247786      -2.37082852      -0.00147396      -0.00172958       0.00128304
Al       7.74646321       5.92520326       1.98057655      -2.51630844       0.00238906       0.00007737       0.00062940
Al       9.75420775       3.90164466       1.90975644      -2.25160021      -0.00134689      -0.00183968       0.00020838
Au       9.75199869       6.07259261       0.06750247       0.64514537       0.00103927      -0.00092442       0.00128058
Au       7.73595588       3.83813063       3.92131043       0.01444730      -0.00050207      -0.00028405       0.00024789
Au       7.84019651       5.97029861       5.85563175       0.33364690      -0.00016661       0.00010829      -0.00044586
Au       9.79640025       3.90340416       5.80392275      -0.28995148      -0.00033512      -0.00024650       0.00145290
Au       9.78298247       5.96070569       3.90079501      -0.49142356       0.00026098      -0.00065157       0.00035286
Au       7.81138692       3.84199878       7.77881071       0.74822938       0.00020998       0.00115062       0.00102256
Al       7.80355309       5.89782632       9.77929596      -1.29992084       0.00024590       0.00053997       0.00083720
Al       9.81710595       3.92476912       9.76473231      -2.25092772       0.00007893       0.00102619       0.00019596
Au       9.87639098       5.94981555       7.74157571       0.63105299       0.00130215       0.00072896       0.00000425
Al       7.77392608       3.91024958      11.75348203      -2.34985536       0.00045434       0.00029988      -0.00144992
Au       7.76362015       5.93670425      13.73520913       0.18897276      -0.00050320      -0.00068519       0.00056100
Au       9.78475699       3.91747965      13.84550129       0.52972321      -0.00081855      -0.00069319       0.00021304
Au       9.82282749       5.83818949      11.77758867       1.36882204      -0.00002606      -0.00034333      -0.00099533
Cu       7.71609382       7.87531914      -0.02374662       2.97812563       0.00088758       0.00145796      -0.00009275
Al       7.83955439       9.82118461       1.98981724      -3.23221569       0.00060943       0.00420190      -0.00033530
Cu       9.78452264       7.87974836       1.99577444       2.95035066      -0.00010393       0.00148958      -0.00085371
Au       9.72847931       9.75318097       0.04463837      -0.83040733       0.00107057       0.00216102      -0.00099346
Cu       7.88037873       7.86507914       3.95527796       3.09648363       0.00128087      -0.00019723      -0.00177288
Au       7.84993557       9.78584786       5.83960678       0.42347138       0.00111301       0.00044117      -0.00070554
Cu       9.83412419       7.84917930       5.79878822       2.98755508      -0.00041158      -0.00107061      -0.00039535
Au       9.78699929       9.78484632       3.90682438      -0.84437556      -0.00085329      -0.00008981      -0.00029171
Al       7.81276897       7.93355031       7.91644770      -1.88100458      -0.00003674      -0.00268906       0.00028856
Cu       7.72283901       9.92869353       9.91580672       3.03088195       0.00162515       0.00017686      -0.00055685
Al       9.85996705       7.88762408       9.80709531      -1.76918524       0.00011590      -0.00000230       0.00040477
Al       9.84516315       9.76159118       7.84280358      -2.21034425      -0.00051323      -0.00167744      -0.00082540
Au       7.73606042       7.94376657      11.71459201       0.13884574       0.00221178       0.00035751      -0.00069614
Au       7.73853852       9.84082185      13.69550854      -0.55788834      -0.00032505       0.00051717      -0.00024481
Al       9.78376351       7.88506303      13.68544880      -2.63675326       0.00042871       0.00025173      -0.00035527
Au       9.81546110       9.90427009      11.73120740       0.53348816      -0.00052924       0.00094471       0.00018163
Au       7.87136341      11.86714701      -0.04476203      -0.85369876       0.00221562      -0.00022751       0.00032688
Al       7.84856050      13.87407735       1.84671212      -2.52207280       0.00281644      -0.00147951       0.00684636
Cu       9.80543236      11.80484905       1.97533794       2.60105546      -0.00033248       0.00068209       0.00035286
Cu       9.78143931      13.67770238      -0.07270044       2.47457209      -0.00008793      -0.00057209      -0.00129949
Cu       7.87172286      11.84389215       3.90648895       2.98953950       0.00140437       0.00463176      -0.00145973
Cu       7.86727378      13.67356849       5.88657892       3.33821491       0.00137667      -0.00041441       0.00086856
Al       9.80013555      11.75148988       5.90081484      -2.72163392       0.00071212      -0.00031607      -0.00205122
Au       9.80003123      13.67601229       3.88105105      -0.10309440      -0.00152338       0.00107307      -0.00216788
Au       7.77698842      11.77108200       7.94617643       0.49707036      -0.00075633      -0.00113235      -0.00220979
Al       7.75795500      13.80087125       9.84846375      -2.32614045       0.00137427      -0.00249481       0.00106551
Au       9.86082597      11.80054299       9.77272455       0.50470701      -0.00066991      -0.00086106       0.00099172
Au       9.83550794      13.78189573       7.82743236       0.48087821      -0.00191558      -0.00005022       0.00060673
Al       7.78188385      11.86443429      11.78638587      -3.06237358      -0.00022465       0.00075033       0.00331782
Cu       7.83399763      13.78398760      13.77998900       2.35268280       0.00063349       0.00061240      -0.00140835
Cu       9.76179893      11.74094923      13.78916720       3.06870179       0.00067103      -0.00021857      -0.00151809
Al       9.77118546      13.73694919      11.83023496      -2.03970527       0.00070456      -0.00065387       0.00079209
Au       7.78979857      17.66838935       2.10473588      -0.48540732       0.00063305      -0.00556788       0.00529787
Al       9.81901516      15.67972166       1.96318438      -1.91711487       0.00786187       0.00062984       0.00587866
Al       9.68771692      17.53485655       0.01519331      -2.20406373       0.00531183       0.00208325       0.00218006
Al       7.84143166      15.69575324       3.94927888      -2.30968986       0.00057981       0.00107058      -0.00228465
Au       7.74790685      17.73127035       5.73618750       0.09951257       0.00132993       0.00177199       0.00225900
Al       9.82229943      15.72582263       5.78882723      -2.16081323       0.00251322      -0.00058733      -0.00219111
Cu       9.79506620      17.75982335       3.80873297       3.10663767      -0.00072116       0.00038366      -0.00023400
Au       7.77663278      15.66942265       7.77615552       1.06490352      -0.00030878       0.00018006       0.00192029
Au       7.74094349      17.47023227       9.92145398       0.24950373      -0.00047221       0.00150733      -0.00071214
Al       9.83883506      15.61550980       9.85308101      -1.96264555      -0.00047794      -0.00130618       0.00228354
Al       9.80042038      17.55584265       7.83065884      -1.55304686      -0.00209013       0.00037943       0.00251436
Cu       7.73270354      15.61288982      11.82186661       2.99441517      -0.00103443       0.00215311       0.00204818
Au       7.78905343      17.50082358      13.66010882      -0.16193642       0.00308014      -0.00081413      -0.00747392
Cu       9.65147356      15.58634267      13.78228265       2.85397058       0.00540827      -0.00070001      -0.00227611
Al       9.84437665      17.52534837      11.84268195      -2.05872520      -0.00169794      -0.00082621       0.00008628
Cu      11.69379936       0.10522513       0.04492678       2.52252933      -0.00211857      -0.00143446       0.00093714
Cu      11.76950870       1.89983586       1.90840400       2.32727280      -0.00164955      -0.00060509       0.00075283