399
Lattice="19.59262691714357 -0.0029401591670048664 0.00043227724696582155 -0.0029405439160256983 19.594541571232078 0.002722427805357169 0.0003459403246241731 0.002177382872289726 15.670877927394494" Properties=species:S:1:pos:R:3:energies:R:1:forces:R:3 energy=11.988298359721357 free_energy=11.988298359721357 stress="0.000844597406080199 0.00011120134020931231 -0.00016770758883698613 0.00011120134020931231 0.00042470099420088473 -7.730538178875478e-05 -0.00016770758883698613 -7.730538178875478e-05 0.0007625224809188839" pbc="T T T"
Au      -0.02870789       0.03834887       0.06996178      -1.23609947       0.00173448       0.00044377      -0.00118519
Cu      -0.09933700       1.90431593       1.88844411       2.75354680      -0.00028324       0.00050553      -0.00057443
Cu       2.02727764      -0.05467204       1.94722456       3.25126240      -0.00243949       0.00035406       0.00091104
Al       1.95290915       1.93207507       0.12525351      -3.32538767      -0.00064484      -0.00138275       0.00017976
Al      -0.06940316      -0.00734520       3.86215925      -2.46216013       0.00025782      -0.00024001      -0.00130730
Al      -0.09789269       1.99462328       5.79956235      -1.65502449      -0.00183480       0.00030542      -0.00000696
Al       1.92262334       0.11416613       5.85576097      -1.90962529       0.00040468      -0.00111154      -0.00038628
Al       1.89651316       1.90105786       3.74415133      -2.80537963       0.00037533      -0.00104847      -0.00075917
Al       0.01208656       0.02852754       7.74733731      -2.15735661       0.00005329      -0.00075156      -0.00286912
Au       0.16965889       1.94149618       9.65611843      -0.16610844       0.00425596       0.00166016       0.00259204
Cu       1.88163102      -0.15566662       9.85916840       2.12219962      -0.00200402      -0.00102083       0.00184142
Cu       0.04652079      -0.13939660      11.74574300       2.02135501       0.00134035      -0.00152903       0.00078542
Cu       0.00240192       1.88945130      13.79864297       2.58238136      -0.00290877      -0.00078689       0.00177120
Au       1.87146481      -0.05704666      13.69606757      -0.26556653      -0.00086810      -0.00182540       0.00254407
Au       1.87154566       1.85851073      11.73851155      -0.90179720      -0.00344377       0.00437935      -0.00507059
Cu       0.01348710       3.84895167       0.09164669       2.22132994       0.00128276       0.00003283       0.00052205
Cu      -0.09096364       5.79067031       1.85796890       2.75151233      -0.00057763       0.00010353       0.00117390
Cu       1.87112650       3.85583042       1.92111159       2.91211041      -0.00060133       0.00142553       0.00196184
Au       1.93190525       5.78953436       0.07260674      -0.35759657      -0.00095249      -0.00035827      -0.00060316
Al      -0.05687882       3.86342378       3.79616921      -2.50874409      -0.00244158       0.00039927      -0.00030921
Au       0.01676802       5.74019704       5.91699708       0.14773333      -0.00073967       0.00179838      -0.00112062
Au       2.01460623       3.70697945       5.82488030       0.36782978       0.00462997       0.00245566       0.00110729
Al       1.90915328       5.74348111       3.83788284      -2.30039285      -0.00000453       0.00275459      -0.00039874
Cu       0.16157216       3.86322413       7.81975997       3.24493364      -0.00072972      -0.00064388      -0.00032172
Au       0.06874004       5.83842199       9.70282477       0.57565255      -0.00205999      -0.00031577       0.00281906
Cu       1.97254936       3.85864702       9.83623713       2.93464269      -0.00102049      -0.00195060       0.00324280
Al       1.99564862       5.84352089       7.81709708      -3.18809104       0.00275942       0.00114045      -0.00423482
Au       0.03004192       3.91048595      11.75683123       0.29802044      -0.00112007       0.00036648      -0.00008247
Au      -0.03366927       5.85372316      13.83731444       0.39443639       0.00017417      -0.00092916       0.00096477
Au       1.90917400       3.84079914      13.79697280       0.17867419       0.00108682       0.00053048       0.00046764
Al       1.99116143       5.87582659      11.82334430      -2.78466230      -0.00058063       0.00048434       0.00198104
Al       0.00894345       7.82789458       0.06631038      -2.95462872      -0.00105937      -0.00092606      -0.00014744
Au       0.04615214       9.78658824       2.06259327      -0.06566645      -0.00148503       0.00181731       0.00073733
Al       1.94152157       7.82559863       1.95489875      -2.40197584      -0.00032240      -0.00013918       0.00026366
Cu       1.97983973       9.84628973       0.02127373       3.01305205      -0.00005406       0.00081361       0.00015569
Al       0.06421060       7.75410429       3.96153380      -2.58960227      -0.00077105      -0.00045788       0.00008366
Al       0.05952507       9.74568718       5.92835728      -2.71041852      -0.00084525      -0.00003645       0.00017636
Cu       1.96362488       7.79241842       5.93437429       3.14460025       0.00122084      -0.00067175      -0.00091544
Cu       1.93143806       9.89680903       3.93789717       3.07497377       0.00084657      -0.00029922       0.00055918
Cu       0.01049477       7.72391507       7.76077417       3.56205421       0.00037525       0.00097064      -0.00131769
Al       0.02130306       9.79526537       9.70967573      -2.23322710       0.00086754      -0.00103742       0.00042974
Al       2.03225485       7.89414335       9.78318194      -2.21951069       0.00084841       0.00114296      -0.00022483
Al       2.00082271       9.78494311       7.89541566      -2.12365811       0.00015340       0.00039461       0.00031620
Al       0.09681538       7.85759863      11.73912266      -2.15826226      -0.00084969       0.00007583       0.00032788
Au       0.17463553       9.79877809      13.69024622       0.01477242       0.00026062       0.00093182      -0.00070840
Cu       1.96720402       7.81989826      13.78760668       3.07715886      -0.00036682      -0.00071548       0.00065975
Cu       2.02495292       9.92895510      11.72654665       2.93387198       0.00040648      -0.00038304       0.00123533
Al       0.10186336      11.85883594      -0.02501301      -3.02637381       0.00101759      -0.00085116       0.00067502
Cu       0.08343706      13.78767441       2.03225272       2.85668615      -0.00110114      -0.00003008      -0.00017043
Au       1.88844171      11.80509772       1.99985274      -1.07892676       0.00048888       0.00132308       0.00090728
Cu       1.99402841      13.84035410      -0.05666398       2.20203016      -0.00243980      -0.00106311       0.00089087
Cu       0.01795518      11.80275435       3.98536530       2.75645517      -0.00050888       0.00038047      -0.00038456
Au       0.02450641      13.81438650       6.08214661      -1.60924519      -0.00093584      -0.00133246       0.00045383
Au       1.86656236      11.80196202       5.94849875       0.07450001       0.00034950       0.00064597      -0.00083865
Au       1.85886283      13.81023121       3.96974956      -0.41602248       0.00099704      -0.00048239      -0.00008652
Cu       0.03806237      11.89046183       7.89075028       3.25615913       0.00094881       0.00071376      -0.00042688
Au      -0.04384951      13.79157272       9.69372202      -2.02449899       0.00085663       0.00114608      -0.00102705
Au       2.02642516      11.86874843       9.81853671      -1.43190887       0.00156312      -0.00009775      -0.00044836
Cu       1.93023759      13.82300916       7.91861685       2.65506038      -0.00066328      -0.00176163       0.00025139
Au       0.01698687      11.80275630      11.66203494      -0.45322088       0.00093958      -0.00018371       0.00182649
Au       0.03974033      13.82600823      13.59401937      -0.67740788       0.00060823      -0.00062856      -0.00014654
Au       2.02555977      11.89889873      13.60415792      -1.27423604       0.00004411      -0.00065564       0.00050302
Cu       2.04268768      13.78995416      11.72145197       1.97363094      -0.00013947      -0.00164497       0.00064160
Au       0.06188005      15.60054548       0.00483252      -0.52334021       0.00283638       0.00006760      -0.00036952
Al      -0.00965034      17.68164691       2.00052999      -2.50683270       0.00013988      -0.00073355      -0.00143986
Cu       1.90235927      15.66532837       1.93652244       2.70517184      -0.00097093      -0.00098112      -0.00147557
Au       1.96293569      17.55922179       0.06452408      -1.25849445      -0.00065076      -0.00103763      -0.00136690
Au       0.01335770      15.79558513       3.98017622      -0.32183401      -0.00232162      -0.00180683      -0.00085425
Cu      -0.07035676      17.62491632       5.88290157       2.87274135      -0.00003351      -0.00113664       0.00149824
Cu       1.85544827      15.76755682       6.00472039       2.63748150       0.00058278      -0.00012308       0.00066919
Al       1.95874750      17.68680535       3.97358175      -2.64771940       0.00167505      -0.00137952       0.00072010
Cu       0.03082984      15.73746665       7.91075918       2.22639277      -0.00013215      -0.00127925      -0.00033183
Cu       0.01198254      17.59490639       9.82480835       2.15905056       0.00041919       0.00135347      -0.00064877
Au       1.94311871      15.71762341       9.84150968      -2.47806836       0.00309364       0.00123184      -0.00174356
Au       1.87182002      17.65583796       7.83551545      -1.60946856       0.00169566      -0.00226051      -0.00077585
Al      -0.06602011      15.69803323      11.67383283      -4.12299121      -0.00015918      -0.00100149       0.00228233
Au      -0.01351008      17.56484510      13.65633725      -1.37990925      -0.00190516      -0.00083026       0.00117262
Cu       1.98557391      15.64957529      13.66409907       1.87361667       0.00181083      -0.00011180       0.00031542
Cu       1.91331249      17.59757710      11.72051208       2.01894491      -0.00097535       0.00209507       0.00058448
Au       3.86844280      -0.05624844       0.08769529       0.09713609       0.00057472       0.00257192      -0.00085239
Cu       3.91685501       1.93897950       2.05580930       2.62221419       0.00157000       0.00034229       0.00076929
Al       5.81446927      -0.03776203       1.99730563      -3.48160736       0.00088684       0.00032334      -0.00226923
Al       5.79691786       1.94837148       0.03704388      -2.31695603      -0.00023867      -0.00173412       0.00089689
Au       3.92640686      -0.02576392       3.89557883      -1.48090784      -0.00300726      -0.00130295       0.00141702
Cu       3.98817062       1.86232966       5.77901747       2.70933400       0.00002348       0.00045951      -0.00010650
Cu       5.80496033      -0.00657809       5.77931563       1.87162588       0.00001420      -0.00098004       0.00029097
Cu       5.82636260       1.88585893       3.93544990       1.76278248      -0.00005847       0.00164808      -0.00059235
Au       3.75111270       0.09504091       7.89647801      -0.89735033      -0.00015781       0.00224285      -0.00110032
Cu       3.75962580       1.90913234       9.85694726       2.83087807      -0.00095321       0.00030281       0.00015358
Al       5.79440909       0.02748494       9.84912363      -2.96867894       0.00075383       0.00016206       0.00163881
Au       5.86971169       1.82889084       7.75118584      -0.22094668       0.00057090      -0.00018526      -0.00071223
Al       3.86685562      -0.07310240      11.69223833      -3.32225437       0.00243958      -0.00146916       0.00119091
Al       3.91208692       1.90197449      13.72419174      -2.31272383       0.00221288       0.00093413       0.00029785
Au       5.81917233      -0.09949260      13.65528197       0.27511319      -0.00137639       0.00174216       0.00070947
Cu       5.85480950       1.95619979      11.79583306       3.14622623       0.00111281       0.00050009      -0.00098055
Al       3.93666380       3.85741677       0.07546048      -2.55355027      -0.00186697      -0.00013781      -0.00095417
Al       3.90770307       5.77368631       2.02001263      -2.27844844       0.00043455       0.00104236       0.00073340
Cu       5.78899763       3.74958379       2.11352513       2.96253250      -0.00080181       0.00112084       0.00219123
Au       5.78939779       5.90141909      -0.04644050      -0.22190113      -0.00015308       0.00031095      -0.00030968
Cu       3.88672431       3.72039575       3.87135402       2.41870070       0.00138177       0.00006321      -0.00109339
Au       3.81224864       5.84527280       5.83185154       0.55981192      -0.00451223      -0.00209022       0.00223200
Al       5.76139621       3.85538914       5.84744884      -3.00703240       0.00127453       0.00064316      -0.00208135
Al       5.80137752       5.86707524       3.91298320      -2.37556129       0.00218426      -0.00100443      -0.00139267
Au       3.76250723       3.63255641       7.87999013      -0.10575599      -0.00381153       0.00087063      -0.00385255
Au       3.86723929       5.81921699       9.77817725       0.97993438       0.00161183       0.00141452       0.00017122
Al       5.82649866       3.77477841       9.77915499      -2.35443244       0.00018353      -0.00070539      -0.00021853
Al       5.79135690       5.81952793       7.83536603      -2.01577030       0.00041868       0.00096515       0.00053658
Au       3.90355283       3.82634528      11.78167142      -0.34387597       0.00081617      -0.00172751       0.00157024
Cu       3.87421143       5.88655166      13.77389644       2.77192082      -0.00092145      -0.00162828       0.00049565
Cu       5.79650334       3.95175124      13.68647852       3.28046460      -0.00069074       0.00032635       0.00035294
Al       5.78375524       5.89253287      11.78182431      -2.59832656      -0.00111164       0.00083952       0.00089375
Au       3.83551580       7.87713884      -0.05725837      -0.79015726       0.00036034       0.00061483      -0.00067192
Cu       3.81236037       9.85990299       1.92383320       2.78925954       0.00073151      -0.00088579      -0.00034581
Au       5.79761769       7.89834854       1.97003100       0.53794818       0.00055389       0.00000045       0.00101273
Au       5.81912571       9.82793441      -0.01054012      -0.32124824       0.00036317       0.00081826      -0.00003531
Au       3.75113759       7.94743498       3.93519377       0.49205977       0.00023086       0.00029848      -0.00121469
Al       3.83898638       9.83285995       5.93788880      -2.31190390       0.00147318       0.00105056       0.00004347
Au       5.79664695       7.84993790       5.88962288       0.90005099       0.00332627       0.00375416       0.00079702
Al       5.85972420       9.81794451       3.91983995      -2.71347178       0.00125827       0.00000291      -0.00003866
Cu       3.89954539       7.80742861       7.80784960       3.47129365      -0.00033639      -0.00004639       0.00131517
Cu       3.90656681       9.91641986       9.98298074       2.43124254       0.00053962       0.00044018       0.00032858
Au       5.70423418       7.96912925       9.81455543      -0.01498158      -0.00050509      -0.00136155       0.00153166
Al       5.76887440       9.87079553       7.90960795      -2.53441969       0.00034231       0.00000217       0.00044853
Au       3.86595684       7.91684862      11.88014598      -0.66173161       0.00095470       0.00031461       0.00078529
Al       3.87105981       9.88521111      13.67799010      -3.72176991       0.00030267       0.00039579      -0.00065216
Cu       5.84343829       7.87620630      13.73743898       2.71732052       0.00018477       0.00057562      -0.00034702
Cu       5.79599011       9.87277602      11.74277691       2.18760098       0.00008060      -0.00049481       0.00085384
Au       3.80456078      11.84721807       0.01928864      -0.61031368       0.00088050      -0.00097083       0.00091144
Al       3.85117084      13.85728325       1.99869482      -3.26623009       0.00029318      -0.00020397       0.00008897
Au       5.84300777      11.77521843       1.97208035       0.49105147       0.00160073       0.00025056      -0.00117304
Au       5.77065637      13.84124447       0.01371488      -0.27877684      -0.00077099      -0.00132229      -0.00012467
Au       3.84692697      11.75235669       3.92793823       0.35570600      -0.00019521       0.00025384      -0.00027076
Al       3.83421020      13.78068088       5.91275796      -2.21894081       0.00017721      -0.00115845       0.00014252
Au       5.93697051      11.82973472       5.86319548       0.74981056       0.00048615      -0.00067327      -0.00121410
Au       5.91080217      13.76033064       3.91450674       0.70924459       0.00042580      -0.00068420       0.00029600
Al       3.90905338      11.84907719       7.91244020      -2.24650910      -0.00139469      -0.00007145      -0.00052169
Cu       3.83941688      13.82774950       9.85312609       2.20485923      -0.00036088       0.00044944      -0.00077949
Cu       5.75343074      11.75489530       9.94034484       2.36754851      -0.00014366      -0.00071269       0.00071190
Al       5.80528398      13.75811241       7.94696052      -2.41048134       0.00015382      -0.00083146       0.00043270
Cu       3.89713041      11.88245212      11.69403868       1.83018533      -0.00042351      -0.00048642       0.00057533
Cu       3.80313551      13.82745832      13.67231678       1.90420075      -0.00039587      -0.00070611      -0.00048734
Au       5.76825746      11.92120415      13.65291835      -0.56808656      -0.00064827       0.00005942      -0.00003837
Au       5.70606115      13.82749920      11.67481629      -1.70057386      -0.00069216       0.00034726      -0.00049958
Cu       3.79533449      15.68073869       0.01091557       2.13457217       0.00038290      -0.00011211      -0.00083409
Cu       3.86112649      17.54964229       1.95133309       2.41714317       0.00097356      -0.00114370      -0.00064382
Cu       5.82650895      15.78178882       1.99972413       2.88059950       0.00148910      -0.00068496       0.00108332
Au       5.78253590      17.51206435       0.05471825      -0.55052214      -0.00094653       0.00132632      -0.00052929
Al       3.84930747      15.79469528       3.97434871      -2.67664850       0.00192576      -0.00038867       0.00079873
Cu       3.89325141      17.75562075       5.95410716       2.89522518      -0.00126063      -0.00214039      -0.00222224
Al       5.80858715      15.72676958       5.85163895      -2.30430726       0.00046446      -0.00014873       0.00001900
Cu       5.78607248      17.69862045       3.91623248       2.61705087       0.00245803      -0.00184569       0.00022432
Au       3.83463412      15.72453336       7.86720899      -0.98056393      -0.00341815      -0.00003028       0.00076777
Cu       3.81592339      17.60071096       9.81122604       2.19010264      -0.00088062       0.00042795      -0.00095750
Cu       5.68530362      15.77739607       9.85130969       2.22022483       0.00052404       0.00126543       0.00028773
Au       5.74113762      17.71539453       7.84946955      -0.36360807      -0.00030363      -0.00224917      -0.00052238
Cu       3.80364749      15.71483758      11.69380393       1.54950811       0.00179796       0.00285073       0.00177554
Au       3.81751437      17.51575511      13.63833744      -1.14438565       0.00099300      -0.00065184       0.00045066
Al       5.78361522      15.63407882      13.66965206      -3.80722122      -0.00135598       0.00089142       0.00026535
Cu       5.78237739      17.51417912      11.72342797       2.48716701      -0.00124700       0.00123368      -0.00054651
Au       7.82933896      -0.03898783       0.00593665       0.16386987       0.00058700      -0.00018604      -0.00156262
Au       7.77108608       1.88497589       1.98760528      -0.44876369      -0.00023596       0.00037203       0.00144764
Cu       9.77506199       0.04587487       1.94178068       2.32978102       0.00006124       0.00052648       0.00077874
Cu       9.79142430       1.85665907       0.05823204       2.57673269       0.00202954       0.00038138      -0.00164737
Cu       7.75618220       0.02980948       3.91846030       2.23105462      -0.00090841      -0.00015017       0.00089431
Cu       7.75363108       1.86993839       5.77830451       2.50668694       0.00136995       0.00093959      -0.00176354
Al       9.78734848      -0.04714717       5.82054165      -2.56731782       0.00069803      -0.00003726       0.00045067
Au       9.76648081       1.87339047       3.85156644      -0.66128223      -0.00020589       0.00046446      -0.00161630
Al       7.83075379      -0.05812611       7.85413811      -2.28590015      -0.00038565       0.00165152       0.00109330
Cu       7.83532709       1.94212879       9.79445328       3.46107291      -0.00027395      -0.00014236      -0.00021212
Al       9.80294941      -0.04716631       9.82826310      -1.74994499       0.00012876       0.00051967       0.00111847
Au       9.77157532       1.92857982       7.79741189       0.78240529      -0.00002364       0.00024028       0.00201404
Au       7.79077180       0.04446771      11.72388619       0.04825750       0.00055172      -0.00073064      -0.00210019
Au       7.74959543       1.99443454      13.73400405       0.01931995      -0.00009238      -0.00066972      -0.00058713
Au       9.84998960       0.04126857      13.75983295       0.10739627      -0.00046483       0.00184350      -0.00057963
Au       9.83801276       2.03193368      11.76808975       0.73202581      -0.00033482       0.00015736       0.00107250
Al       7.72421784       3.92203936       0.07212700      -2.37192013       0.00048729       0.00113343       0.00029439
Al       7.74761934       5.92540237       1.98644461      -2.52195364      -0.00062975      -0.00027808      -0.00032187
Al       9.75825807       3.90423613       1.91373771      -2.24834370      -0.00008580      -0.00130149      -0.00296551
Au       9.75061341       6.07309849       0.06575238       0.64301836       0.00250220      -0.00012143      -0.00051999
Au       7.73155948       3.83946010       3.92934457      -0.00998905      -0.00172401      -0.00082457       0.00049200
Au       7.83458923       5.96251715       5.86192114       0.33336957       0.00002676       0.00026865      -0.00174202
Au       9.79932916       3.90637602       5.80523812      -0.28718306      -0.00038630       0.00062467      -0.00059058
Au       9.78345090       5.96098983       3.90403350      -0.49693021      -0.00015984      -0.00106993      -0.00043191
Au       7.80943191       3.83480930       7.77709136       0.73721697      -0.00052260       0.00034414       0.00276459
Al       7.78100236       5.88145351       9.76998475      -1.30063381      -0.00118452      -0.00099848       0.00050638
Al       9.81633157       3.92954715       9.75765201      -2.25372760       0.00142905      -0.00042349       0.00039359
Au       9.87584568       5.94921179       7.74328222       0.62931506      -0.00026382      -0.00002643       0.00027173
Al       7.75650404       3.90883092      11.73725066      -2.35393629      -0.00026421      -0.00101624      -0.00062863
Au       7.75807381       5.93461020      13.73106301       0.17812258       0.00076581      -0.00087712       0.00029118
Au       9.78505806       3.92011310      13.84043483       0.52677698       0.00108384      -0.00036381      -0.00027080
Au       9.81389453       5.83449596      11.77272251       1.36573993       0.00108160      -0.00041251       0.00031210
Cu       7.71582672       7.87430818      -0.02168993       2.97026142       0.00119939       0.00049831      -0.00098112
Al       7.83939279       9.82454841       1.99903908      -3.22508511       0.00135169      -0.00011059       0.00032550
Cu       9.78358335       7.88089039       1.99686047       2.94132819       0.00042943      -0.00107620       0.00001885
Au       9.72684763       9.75326399       0.04402034      -0.83246625       0.00103656      -0.00029551      -0.00027563
Cu       7.87704591       7.85855794       3.96177401       3.09415015      -0.00035899      -0.00144699      -0.00049574
Au       7.84331798       9.76386473       5.85394829       0.39537387      -0.00212012      -0.00176887       0.00081542
Cu       9.83549066       7.84122773       5.80349911       2.99397331      -0.00083900      -0.00136492       0.00094809
Au       9.78853436       9.77695304       3.91987813      -0.87067569       0.00021440      -0.00117635      -0.00085593
Al       7.79609244       7.90981262       7.92155937      -1.88419745      -0.00019701      -0.00111183      -0.00066799
Cu       7.71777273       9.91767084       9.91036667       3.02757397      -0.00002959      -0.00112814       0.00045145
Al       9.85234442       7.87888622       9.80901407      -1.76946673      -0.00029712      -0.00097912       0.00017155
Al       9.83947647       9.74768819       7.84900492      -2.21197045       0.00017360       0.00030971       0.00087658
Au       7.72799891       7.93632400      11.70685940       0.12534876      -0.00036923      -0.00171106       0.00081481
Au       7.73809412       9.83502241      13.69031617      -0.55083480       0.00010588      -0.00083815       0.00054016
Al       9.78064916       7.88292225      13.68102611      -2.63069871       0.00149944      -0.00025554       0.00084929
Au       9.81435487       9.90190309      11.72616992       0.53793271      -0.00076497      -0.00090127      -0.00027640
Au       7.86435730      11.86231000      -0.04817157      -0.82561160      -0.00020868      -0.00069837      -0.00006110
Al       7.86357455      13.72241508       1.96665223      -2.87179025       0.00046980      -0.00050241      -0.00045668
Cu       9.82723949      11.78059461       1.99411654       2.66320565       0.00045583      -0.00047526       0.00035350
Cu       9.76286918      13.68559469      -0.05777634       2.60225080      -0.00072181       0.00009782      -0.00060077
Cu       7.86757376      11.81292658       3.95406379       3.05360708       0.00151227       0.00114535       0.00049626
Cu       7.85266137      13.68249680       5.89465517       3.30043205       0.00036912       0.00033859       0.00090775
Al       9.79732870      11.74172583       5.92214925      -2.72027418      -0.00031753       0.00072297       0.00213506
Au       9.81604236      13.66045198       3.91697731      -0.01900228       0.00007608       0.00063274      -0.00018929
Au       7.77100335      11.76684102       7.95013118       0.49289797      -0.00054130       0.00059049       0.00069114
Al       7.75159358      13.80951346       9.84655224      -2.31261782      -0.00119912       0.00077172      -0.00117485
Au       9.85942188      11.80027542       9.76587131       0.51646608      -0.00042787       0.00024691      -0.00059691
Au       9.81494165      13.79750964       7.82938291       0.48637112      -0.00069918       0.00018560      -0.00005093
Al       7.78129279      11.85724582      11.77550010      -3.06633823      -0.00028668       0.00156083       0.00026729
Cu       7.83816002      13.77098343      13.75491893       2.51635425      -0.00037588       0.00009904      -0.00015989
Cu       9.75954584      11.74103646      13.78707856       3.05064190      -0.00138598       0.00030222      -0.00000338
Al       9.77341955      13.73623256      11.81518193      -2.03943253      -0.00012749      -0.00037648      -0.00033731
Au       7.86687737      15.63425608       0.01793145      -0.18802264      -0.00007964       0.00030399      -0.00018902
Au       7.81102792      17.67714414       2.08665124      -0.53528064       0.00112597       0.00014175      -0.00045225
Al       9.84380435      15.67629618       2.00852386      -2.23441016       0.00014143      -0.00034497       0.00095869
Al       9.78614358      17.63596400       0.02467561      -2.51695422       0.00128148       0.00147434      -0.00083778
Al       7.82930907      15.69266563       3.93008126      -2.34311535      -0.00003667       0.00066317       0.00027133
Au       7.73540251      17.73664390       5.73753371       0.09985035       0.00141130      -0.00053355      -0.00258275
Al       9.80550874      15.73355482       5.78995738      -2.15061509       0.00099284       0.00021767       0.00192601
Cu       9.79666193      17.77053653       3.81499955       3.10644987      -0.00017684       0.00072878       0.00157828
Au       7.73840360      15.70512677       7.78427301       1.05294502       0.00108461      -0.00089827       0.00016669
Au       7.71370448      17.49306777       9.91978017       0.23367771      -0.00081798       0.00047263       0.00170728
Al       9.82320407      15.62988846       9.85254941      -1.94200136      -0.00081682      -0.00039043      -0.00200111
Al       9.79477231      17.55771937       7.83475615      -1.54141668      -0.00025023      -0.00100530      -0.00072360
Cu       7.72687677      15.62510555      11.82645917       2.94956869       0.00048935       0.00141100       0.00016224
Au       7.79864980      17.54881505      13.62846826      -0.22484498       0.00157023      -0.00018149       0.00062037
Cu       9.67855802      15.61341593      13.74955925       3.06240741      -0.00115979       0.00132589       0.00077726
Al       9.85010580      17.54731518      11.81977022      -2.05650320      -0.00132287       0.00125172      -0.00147098
Cu      11.72493443       0.12168603       0.03491256       2.52636611       0.00115044       0.00036944      -0.00023137
Cu      11.77587323       1.90292931       1.91237850       2.32769149       0.00069622      -0.00144111      -0.00063049