399
Lattice="19.59262691714357 -0.0029401591670048664 0.00043227724696582155 -0.0029405439160256983 19.594541571232078 0.002722427805357169 0.0003459403246241731 0.002177382872289726 15.670877927394494" Properties=species:S:1:pos:R:3:energies:R:1:forces:R:3 energy=12.102611432501973 free_energy=12.102611432501973 stress="0.0006454196765083095 4.621740497904405e-05 -0.00010623882665347814 4.621740497904405e-05 -9.088631962498742e-05 -0.0001990806693449102 -0.00010623882665347814 -0.0001990806693449102 0.0006692993599401052" pbc="T T T"
Au      -0.01652313       0.04326681       0.06277551      -1.23002086      -0.00057993      -0.00104039      -0.00006921
Cu      -0.07890730       1.90291151       1.89135526       2.72490673      -0.00032334      -0.00282755      -0.00043777
Cu       2.03290772      -0.04666216       1.95194936       3.20675821       0.00100712      -0.00020750       0.00013788
Al       1.96622841       1.93397147       0.11281692      -3.32568771       0.00007791      -0.00152150      -0.00022591
Al      -0.07208628      -0.02315159       3.85508523      -2.46673085      -0.00044311      -0.00037650       0.00029115
Al      -0.07918804       1.97667070       5.79287513      -1.88371399      -0.00032980      -0.00022056      -0.00143532
Al       1.90207401      -0.01024000       5.82888306      -2.18618557       0.00036902      -0.00086294       0.00091417
Al       1.90095241       1.88844999       3.78791669      -2.81005340       0.00096227      -0.00315594       0.00012311
Al      -0.07763889      -0.01974453       7.75442369      -2.47893694      -0.00048969      -0.00095243       0.00101880
Au       0.00201226       1.93454777       9.75839379      -0.01792130      -0.00038709      -0.00001238      -0.00239495
Cu       1.87278908      -0.10804625       9.80558765       2.19011416      -0.00026934      -0.00011498      -0.00028241
Au       1.94806971       1.90345629       7.86951853      -0.58596177      -0.00159199      -0.00135742       0.00129186
Cu       0.03200921      -0.11582947      11.74473743       2.01117395      -0.00154128       0.00029117       0.00009541
Cu       0.00642269       1.89318133      13.78700591       2.56554072       0.00190309      -0.00137479      -0.00022780
Au       1.87749199      -0.03719757      13.67281716      -0.27993381       0.00103024       0.00044333      -0.00109836
Au       1.89566501       1.87104041      11.69083113      -0.88108540       0.00045814      -0.00057810       0.00222065
Cu       0.04145099       3.84973778       0.09185610       2.23191621       0.00021569       0.00074527      -0.00056067
Cu      -0.05147797       5.78666570       1.83873910       2.73356258       0.00114476       0.00040993       0.00063654
Cu       1.89688077       3.83834505       1.92526764       2.87355924      -0.00105762       0.00043851      -0.00058255
Au       1.98814183       5.77222730       0.06338336      -0.34850960       0.00347087       0.00281611      -0.00078755
Al      -0.04181637       3.87272309       3.79143800      -2.51844053      -0.00100728      -0.00255708      -0.00115756
Au       0.01738028       5.77532839       5.89919001       0.13204945      -0.00135877      -0.00229272       0.00181881
Au       2.02111888       3.78179611       5.80418177       0.32566470      -0.00033848      -0.00278655       0.00149645
Al       1.93086206       5.77325048       3.79916390      -2.28509197       0.00157397      -0.00030349       0.00060341
Cu       0.11213415       3.87664899       7.81416602       3.31423712      -0.00040410       0.00022436      -0.00057134
Au       0.05748310       5.83051620       9.71629560       0.59242114      -0.00110092      -0.00007334      -0.00279766
Cu       1.95860691       3.83262872       9.79735093       2.86819407      -0.00064736       0.00054451      -0.00148856
Al       1.97739336       5.85230854       7.82445629      -3.23070955       0.00006061      -0.00044221      -0.00065415
Au       0.01351674       3.90786080      11.78321545       0.30541732       0.00053371       0.00052406       0.00068055
Au      -0.00800748       5.85456965      13.86125645       0.38475664      -0.00087340      -0.00022115      -0.00086446
Au       1.92816270       3.83379342      13.78563183       0.16690613      -0.00061885      -0.00049359      -0.00256760
Al       1.97605062       5.86679595      11.81480236      -2.74231313       0.00106714      -0.00034769       0.00073887
Al       0.01544183       7.81522940       0.08599672      -2.91619969      -0.00358208       0.00074093       0.00088598
Au       0.08037839       9.78253254       2.04617748      -0.09395628       0.00361000      -0.00214252       0.00026319
Al       2.10276728       7.85636903       1.81180749      -2.15558306       0.00142447      -0.00042289      -0.00346110
Cu       1.97869343       9.88929545       0.03088773       2.99546247       0.00010051      -0.00011137       0.00054807
Al       0.11555980       7.75912388       3.89659711      -2.59364592      -0.00036771       0.00276182      -0.00141439
Al       0.06105893       9.74026245       5.91315394      -2.71981729      -0.00028023       0.00080907       0.00105573
Cu       1.95575993       7.80322891       5.94312677       3.16709598       0.00147676       0.00011259       0.00005635
Cu       1.93754922       9.91791038       3.92937356       3.07032172       0.00127725      -0.00299334      -0.00101837
Cu       0.00173849       7.72938934       7.76851219       3.57932372      -0.00144083       0.00202500      -0.00047949
Al       0.01777112       9.79626509       9.71807660      -2.23193610      -0.00007802       0.00063032      -0.00193136
Al       2.00955021       7.90204374       9.77650052      -2.21520368      -0.00069514      -0.00060189      -0.00292502
Al       1.98893289       9.79381356       7.89236383      -2.13832571      -0.00044018       0.00132401      -0.00055040
Al       0.11704493       7.85591041      11.76335417      -2.11244333      -0.00089603      -0.00095098       0.00223457
Au       0.20200459       9.77752000      13.70538140       0.03372379       0.00053625      -0.00091965       0.00083419
Cu       2.02572381       7.78724548      13.87822493       2.77383681       0.00564070       0.00019840       0.00230526
Cu       2.03527139       9.93228579      11.72958351       2.95598581      -0.00013815       0.00016745       0.00063265
Al       0.10019740      11.86727517      -0.02987167      -3.04461120       0.00003300       0.00036398       0.00044172
Cu       0.07607375      13.79896536       2.02944974       2.87842581       0.00040225       0.00058013      -0.00081190
Au       1.88296711      11.83694094       2.00160132      -1.13761360       0.00029259       0.00003802      -0.00044283
Cu       1.99174648      13.84650708      -0.06231838       2.21146896      -0.00017183      -0.00047456      -0.00068318
Cu       0.01962743      11.80639342       3.98240871       2.76327639      -0.00146521       0.00290418       0.00096075
Au       0.01833607      13.81767048       6.08234653      -1.60648093       0.00076958       0.00004560      -0.00010827
Au       1.86052043      11.80928751       5.94866102       0.06402569       0.00034803       0.00086072       0.00165411
Au       1.85656854      13.82455025       3.97285424      -0.40933265       0.00072305       0.00203280      -0.00059407
Cu       0.03337245      11.89125198       7.89181374       3.24607233      -0.00013138       0.00000391       0.00044020
Au      -0.04535031      13.78435739       9.70524777      -2.02203193      -0.00136515      -0.00096299      -0.00011683
Au       2.02732183      11.86679333       9.81978877      -1.43524768      -0.00311732       0.00086916      -0.00005599
Cu       1.92374279      13.82148950       7.92191890       2.65604619      -0.00176767       0.00036358      -0.00077032
Au       0.02254528      11.79133321      11.67116480      -0.44962721      -0.00157552       0.00188548      -0.00224697
Au       0.04487759      13.82330279      13.58994895      -0.68168731      -0.00205459       0.00233067       0.00096808
Au       2.03308520      11.89031291      13.60773208      -1.31141976       0.00668137      -0.00213018       0.00129434
Cu       2.04651429      13.78031928      11.72504559       1.97908429      -0.00226682       0.00281524      -0.00071874
Au       0.06219300      15.60663835      -0.00752491      -0.53165673      -0.00036920       0.00169874       0.00072279
Al      -0.01001527      17.67902783       1.98738715      -2.49401365      -0.00046877       0.00085133      -0.00016875
Cu       1.90333767      15.66054547       1.92202442       2.70298539      -0.00019551       0.00070715      -0.00086225
Au       1.96572820      17.56639902       0.05533179      -1.24016796       0.00072189      -0.00134626       0.00023656
Au      -0.00105910      15.79370797       3.97382912      -0.32335623      -0.00057264       0.00091352      -0.00108678
Cu      -0.09746826      17.60046697       5.88243325       2.87715871      -0.00177931      -0.00094990       0.00067141
Cu       1.85029142      15.77106528       6.00379915       2.61947666       0.00022245       0.00047292       0.00036902
Al       1.96646425      17.65013683       3.93272226      -2.63465541      -0.00105662      -0.00119138       0.00000930
Cu       0.01753231      15.72731798       7.92042223       2.23364356      -0.00174978      -0.00051725      -0.00084550
Cu       0.00150641      17.60123561       9.83223585       2.16434080      -0.00146038      -0.00123470       0.00141903
Au       1.93904316      15.71023449       9.84878500      -2.45190291      -0.00281067      -0.00104285       0.00155951
Au       1.84824444      17.64319214       7.84848738      -1.58192677      -0.00051350       0.00256590       0.00060490
Al      -0.06413192      15.70234917      11.67840750      -4.10747764      -0.00070735       0.00083194      -0.00114465
Au      -0.00432936      17.57948014      13.64926678      -1.36605424      -0.00116358      -0.00177114      -0.00102995
Cu       1.98714064      15.65538961      13.65602697       1.87845184      -0.00095697       0.00136018       0.00006464
Cu       1.90932290      17.62553683      11.69452731       2.01210192      -0.00083050      -0.00041350       0.00018232
Au       3.86619366      -0.05384748       0.07825788       0.11629040      -0.00123465      -0.00024978       0.00077755
Cu       3.90481857       1.93052322       2.06744690       2.58696485       0.00144212      -0.00090955      -0.00033699
Al       5.80330335      -0.03717606       2.00631104      -3.48188967      -0.00017940      -0.00127237       0.00032579
Al       5.79270389       1.93065801       0.03656115      -2.27603101      -0.00086617      -0.00054631       0.00112003
Au       3.92670928      -0.03401337       3.91968870      -1.42570445       0.00103203      -0.00172989       0.00066381
Cu       3.94238155       1.85775621       5.84311534       2.66936349      -0.00020526      -0.00055316      -0.00021731
Cu       5.80927509      -0.01766089       5.79215652       1.88419352       0.00121783       0.00035651       0.00113000
Cu       5.81449375       1.87631564       3.96221882       1.74471555      -0.00076666      -0.00100950       0.00089990
Au       3.85864191      -0.03908603       7.86998584      -0.98523016       0.00083065      -0.00021126       0.00072292
Cu       3.82443537       1.92761870       9.79465826       2.87032302       0.00055707       0.00037531       0.00021192
Al       5.83531917       0.00606222       9.84572785      -2.96339102       0.00093489      -0.00041584       0.00053706
Au       5.87499667       1.84416769       7.75739133      -0.29146526       0.00165958      -0.00025055       0.00051780
Al       3.87263178      -0.05897922      11.65260054      -3.29925585      -0.00008167      -0.00053049      -0.00017010
Al       3.92589750       1.90471546      13.70113033      -2.31446321      -0.00190592       0.00005357      -0.00072429
Au       5.81742466      -0.10003306      13.64039200       0.27178767       0.00316832      -0.00009220      -0.00101731
Cu       5.87069663       1.95902564      11.78019625       3.13576895      -0.00113216       0.00112214       0.00030485
Al       3.97103423       3.84522384       0.06565310      -2.49867273      -0.00047923      -0.00116606       0.00069165
Al       3.93739078       5.73359132       2.02374921      -2.04761315      -0.00017703       0.00252492      -0.00108678
Cu       5.78098231       3.72576001       2.13579501       2.99039257      -0.00040566      -0.00107578       0.00007378
Au       5.70393846       6.01051991      -0.08672880      -0.24629553      -0.00329584       0.00168203      -0.00293409
Cu       3.89323346       3.71079079       3.88626632       2.42288008      -0.00107132       0.00112239      -0.00097339
Au       3.82845950       5.89520488       5.83383831       0.52875308      -0.00039033       0.00203719      -0.00017653
Al       5.78370696       3.86934894       5.82468919      -3.01872514      -0.00036108      -0.00154933       0.00108758
Al       5.80688718       5.89153462       3.91313659      -2.34055337       0.00034884      -0.00021021      -0.00192228
Au       3.89438735       3.80306672       7.86703971       0.11832448      -0.00036922       0.00097001      -0.00028651
Au       3.86845790       5.86000430       9.79274523       0.99460423      -0.00079332       0.00268751       0.00122179
Al       5.87467461       3.81080721       9.79978764      -2.36227771      -0.00103584      -0.00037703      -0.00120766
Al       5.83877928       5.88042751       7.84622122      -2.05235496      -0.00113410       0.00013255      -0.00057332
Au       3.91149786       3.82922066      11.75154564      -0.32944350      -0.00142235      -0.00058454      -0.00020439
Cu       3.86523772       5.86788156      13.73091219       2.68890911       0.00077757       0.00104439       0.00045071
Cu       5.78674475       3.97042307      13.67824101       3.27973704       0.00017073       0.00140133       0.00129564
Al       5.79493945       5.90536221      11.77468058      -2.61628038       0.00038331       0.00063829      -0.00074066
Cu       3.81512570       9.93282941       1.95749352       2.84909518       0.00134538      -0.00211887       0.00241083
Au       5.71386834       7.91111842       1.94646360       0.66171081      -0.00419135      -0.00313443       0.00083469
Au       5.76103787       9.78084472      -0.01030739      -0.28952257      -0.00337183       0.00046277      -0.00445612
Au       3.73743770       7.96946818       3.94286166       0.49666195      -0.00030178       0.00112187      -0.00118743
Al       3.83671145       9.84641942       5.94222558      -2.31258826      -0.00025414      -0.00171959       0.00124683
Au       5.80716363       7.87701104       5.88945387       0.92342634      -0.00036915      -0.00008252       0.00060488
Al       5.85971893       9.82274626       3.91683439      -2.72921442       0.00127925      -0.00041425      -0.00158180
Cu       3.90047128       7.82622267       7.82081251       3.44802825      -0.00045966       0.00004719      -0.00058384
Cu       3.90193931       9.91124099       9.96925151       2.44072907      -0.00006602       0.00010538      -0.00049564
Au       5.72075360       7.98940667       9.82310487      -0.03855896      -0.00133453      -0.00144276       0.00041917
Al       5.77627194       9.88020981       7.90945550      -2.54302154      -0.00055497       0.00126636      -0.00065665
Au       3.84331209       7.91761124      11.86338042      -0.66148205       0.00016542       0.00019006       0.00365991
Al       3.84024967       9.81454238      13.74106030      -3.45921083       0.00067916      -0.00218751       0.00272996
Cu       5.84167412       7.89391179      13.69327916       2.70606160      -0.00104060       0.00035265       0.00043489
Cu       5.77565783       9.86949428      11.75780196       2.16444875       0.00008454      -0.00058109      -0.00061200
Au       3.80623971      11.86287475       0.02082438      -0.64330025      -0.00294352      -0.00000880      -0.00422159
Al       3.85850949      13.86281433       1.99349657      -3.26912189       0.00148176       0.00196188      -0.00014852
Au       5.84466955      11.76583386       1.95829754       0.44613447       0.00175738       0.00210767       0.00135974
Au       5.77277229      13.84356253       0.00319189      -0.29559957      -0.00013522       0.00247990       0.00039308
Au       3.85032536      11.77629815       3.93859412       0.31520456       0.00100991       0.00194874      -0.00032629
Al       3.83397784      13.78624522       5.91897157      -2.21590224       0.00103776       0.00009228       0.00126228
Au       5.94280716      11.83383061       5.86416852       0.75196283      -0.00071264       0.00088249      -0.00139754
Au       5.92326953      13.75149216       3.90317222       0.71538118      -0.00054278      -0.00310978      -0.00085412
Al       3.90840716      11.85219050       7.91213151      -2.24564478      -0.00271734       0.00225384       0.00079703
Cu       3.84213295      13.82152890       9.86044503       2.20124541       0.00059910       0.00059174      -0.00050356
Cu       5.75036489      11.74796885       9.94652864       2.36064482       0.00118013       0.00129107      -0.00124532
Al       5.80907917      13.75532887       7.95361503      -2.40461044      -0.00107068       0.00007762       0.00274312
Cu       3.89538142      11.85900900      11.70221467       1.80614967      -0.00096206       0.00142663       0.00154647
Cu       3.80157376      13.82804034      13.67260682       1.91378011      -0.00046659      -0.00078392      -0.00018620
Au       5.74446611      11.88888707      13.66308657      -0.59380204       0.00145245       0.00003486       0.00142708
Au       5.70127180      13.81092494      11.69209571      -1.70868581       0.00140124       0.00001354      -0.00092602
Cu       3.79483375      15.68526263       0.00051968       2.12662972       0.00057358       0.00123756      -0.00099784
Cu       3.86585363      17.54785970       1.94469587       2.42515202       0.00050364       0.00101362       0.00026762
Cu       5.83347448      15.78278631       1.99067844       2.89260875       0.00069473       0.00051760      -0.00040408
Au       5.77778494      17.51862339       0.04798299      -0.55559286       0.00187088      -0.00195057       0.00056833
Al       3.86837011      15.77803564       3.96542191      -2.68001031       0.00128702       0.00106548      -0.00087404
Cu       3.91850668      17.68967331       5.93662896       2.90023389       0.00095454      -0.00000415       0.00162356
Al       5.83380032      15.69210600       5.84926523      -2.31655856       0.00135550       0.00047086       0.00197309
Cu       5.79032496      17.69032259       3.91988811       2.60965726       0.00199303       0.00109955       0.00073446
Au       3.82979858      15.71805574       7.87483105      -1.00220296       0.00199391      -0.00094896      -0.00078063
Cu       3.82538883      17.57929726       9.81648743       2.19512627      -0.00029400       0.00044928       0.00064888
Cu       5.69640882      15.75729974       9.86876856       2.21424363       0.00078890      -0.00005671      -0.00044572
Au       5.80706184      17.63655549       7.85483883      -0.26483668      -0.00011914      -0.00031820      -0.00026331
Cu       3.80223025      15.71173203      11.69577238       1.55372444       0.00019108       0.00059809      -0.00027677
Au       3.80985469      17.53020969      13.61984535      -1.13987399       0.00072359      -0.00132548      -0.00111141
Al       5.77530272      15.64363701      13.66571985      -3.81825627       0.00042234       0.00014164      -0.00029154
Cu       5.78658836      17.51387997      11.71893086       2.49509587       0.00023509      -0.00076662      -0.00043483
Au       7.82226171      -0.04160997       0.00490669       0.16342976       0.00026562       0.00025515      -0.00121870
Au       7.76084044       1.88493866       1.98618018      -0.45431893      -0.00052658      -0.00138497       0.00125094
Cu       9.76872319       0.04736659       1.94154637       2.32644483       0.00102238       0.00082995      -0.00008103
Cu       9.77533293       1.86283051       0.06062042       2.57310267       0.00089891      -0.00004500       0.00037362
Cu       7.75221708       0.03120676       3.92203427       2.22487032       0.00050031      -0.00048955       0.00135755
Cu       7.75753419       1.87704501       5.77763843       2.50612706       0.00028394      -0.00009052       0.00009679
Al       9.78781626      -0.04319103       5.81769674      -2.56659606       0.00133794       0.00006817       0.00065744
Au       9.76206413       1.87819427       3.84539208      -0.67341664       0.00067095      -0.00057595       0.00106158
Al       7.83194184      -0.05642968       7.84741557      -2.28351801       0.00225702       0.00031171       0.00165468
Cu       7.84304633       1.94719103       9.79660422       3.45205068       0.00073772       0.00078161      -0.00035199
Al       9.80495077      -0.04357515       9.82756347      -1.74946661       0.00226020       0.00054168       0.00003396
Au       9.77081312       1.93430309       7.79592983       0.77381113       0.00090248       0.00131259       0.00030889
Au       7.80600281       0.04691737      11.72931953       0.06177091       0.00120915       0.00072363       0.00086886
Au       7.74158381       2.00166438      13.74325677       0.02054784      -0.00143105      -0.00117816      -0.00015456
Au       9.84879405       0.04475951      13.76570986       0.09969819      -0.00013907       0.00131665      -0.00079159
Au       9.83915423       2.04039737      11.77884376       0.72274708       0.00139264       0.00126644      -0.00079947
Al       7.64873923       3.96181829       0.07707988      -2.35655877       0.00003251       0.00107471      -0.00071493
Al       7.69906981       5.95493198       1.96397827      -2.49758110      -0.00014049      -0.00111162      -0.00020931
Al       9.73358416       3.91199734       1.89497695      -2.25735355      -0.00079410       0.00014101       0.00066605
Au       9.73879763       6.07966345       0.07203035       0.63699586      -0.00039809      -0.00099901       0.00041945
Au       7.73475878       3.84899022       3.91662741       0.00883368      -0.00070403      -0.00036460      -0.00026108
Au       7.84106465       5.97644764       5.85531830       0.32518650      -0.00054767      -0.00042321       0.00016327
Au       9.79677763       3.91250940       5.80064818      -0.29600386      -0.00018551      -0.00015443       0.00131606
Au       9.77065737       5.96300614       3.88547074      -0.49730517      -0.00123410       0.00025183       0.00124431
Au       7.81186912       3.84687713       7.77450838       0.74139053       0.00095911       0.00060387       0.00049388
Al       7.80791033       5.89681858       9.77845833      -1.29951834       0.00006480       0.00100116       0.00013698
Al       9.81703615       3.93235088       9.76164356      -2.25315841      -0.00079693       0.00082356      -0.00057045
Au       9.87808742       5.95346179       7.74190229       0.63375344      -0.00013261      -0.00016868       0.00102126
Al       7.76801006       3.91878604      11.75559506      -2.35013544       0.00124038       0.00054963       0.00227510
Au       7.73720329       5.94830644      13.74924769       0.15368585      -0.00151688      -0.00146005       0.00087342
Au       9.76712879       3.92621355      13.86496284       0.52567199       0.00082459       0.00116713      -0.00083482
Au       9.81541418       5.83620623      11.78871792       1.36476721      -0.00101219      -0.00015099       0.00091059
Cu       7.70101860       7.88352825      -0.02174049       3.04385320       0.00097620      -0.00155735      -0.00115904
Al       7.81396442       9.79725497       1.98558095      -3.22677790      -0.00065208       0.00240144      -0.00012434
Cu       9.78288314       7.88190192       1.99541222       2.97480743      -0.00145497       0.00113440      -0.00125292
Au       9.72544087       9.75200543       0.04981083      -0.85061977      -0.00234391       0.00087857       0.00031438
Cu       7.86985673       7.86440195       3.95248378       3.10538953      -0.00080939       0.00178377      -0.00016928
Au       7.85269398       9.77212921       5.84895758       0.39376049      -0.00043117      -0.00022762       0.00032589
Cu       9.83696849       7.84344375       5.79544190       2.99531593      -0.00052255      -0.00042059      -0.00135678
Au       9.78440075       9.77609891       3.90596165      -0.90322808      -0.00095343       0.00040606       0.00118256
Al       7.81498773       7.92878103       7.92352120      -1.88261519      -0.00006192      -0.00017875      -0.00023288
Cu       7.72291920       9.92564058       9.91537266       3.04846763      -0.00000179       0.00091784      -0.00026526
Al       9.86391196       7.88590665       9.81326705      -1.77086114      -0.00060979      -0.00075517      -0.00034727
Al       9.84809197       9.75193002       7.84836908      -2.20700204       0.00204522      -0.00002082      -0.00053363
Au       7.74126999       7.94448032      11.71063648       0.12664110      -0.00039292      -0.00014097       0.00086416
Au       7.72210709       9.82818391      13.70926353      -0.58648105      -0.00116864       0.00158825       0.00293063
Al       9.77845557       7.88479176      13.68958964      -2.63567496      -0.00078648       0.00011384       0.00055920
Au       9.81353893       9.90503252      11.73903049       0.53956454      -0.00106339      -0.00075298      -0.00107444
Au       7.84355720      11.84316769      -0.04707767      -0.80227770       0.00043897      -0.00058938      -0.00163465
Al       7.86500408      13.71811549       1.95543925      -2.88307147       0.00005096      -0.00032790       0.00014428
Cu       9.81773750      11.77112948       1.98894607       2.65796848       0.00146020       0.00104905       0.00016476
Cu       9.74925831      13.67540401      -0.06059198       2.58666819      -0.00069421      -0.00103401      -0.00025230
Cu       7.87082170      11.80446089       3.94176662       3.04936281      -0.00008817       0.00089115      -0.00057165
Cu       7.86828094      13.66997217       5.88624502       3.31843585       0.00036481      -0.00103049       0.00098264
Al       9.80701708      11.73611125       5.91436421      -2.72451464      -0.00055168       0.00021069       0.00057238
Au       9.81728020      13.65410627       3.90910117      -0.03207690       0.00026635       0.00051662       0.00081635
Au       7.77895776      11.76882303       7.94907684       0.49905554       0.00097882      -0.00044664       0.00150711
Al       7.75205983      13.79449601       9.86010740      -2.32117836       0.00160539       0.00009013      -0.00052949
Au       9.86124506      11.79385624       9.77304575       0.50435016       0.00043971      -0.00075911       0.00067154
Au       9.83392512      13.77964555       7.82981132       0.47427806       0.00081058      -0.00069977       0.00000565
Al       7.77119606      11.84637175      11.79172633      -3.07547352       0.00004306       0.00046452       0.00063711
Cu       7.82256404      13.76154638      13.76140524       2.51099425       0.00197973       0.00033679      -0.00049153
Cu       9.75090777      11.73455941      13.79671133       3.05450701      -0.00140441       0.00089890       0.00060297
Al       9.76746366      13.72294825      11.82635621      -2.04130143       0.00097464      -0.00084325      -0.00097474
Au       7.86315349      15.63883127       0.01573078      -0.19365209      -0.00072219      -0.00083352       0.00018995
Au       7.80736240      17.68063350       2.08740967      -0.54775870       0.00081517       0.00031238      -0.00036223
Al       9.84206920      15.67451601       2.00569078      -2.22539676       0.00067309       0.00031160       0.00006028
Al       9.78240317      17.63595858       0.02651428      -2.51541255       0.00061970       0.00088843       0.00030252
Al       7.83671822      15.68709422       3.92157202      -2.34069172       0.00283465       0.00008420      -0.00047058
Au       7.74814600      17.72548067       5.73008797       0.09606368       0.00249607       0.00020998       0.00023751
Al       9.81705743      15.72571741       5.78436146      -2.15988695       0.00116541      -0.00001910       0.00165499
Cu       9.79730648      17.77063818       3.81241834       3.11090225       0.00136214      -0.00027356       0.00002202
Au       7.77751273      15.66879981       7.78532820       1.06955362       0.00079507      -0.00048918       0.00067230
Au       7.73765372      17.47407942       9.93217887       0.24626816       0.00038656      -0.00045214       0.00033312
Al       9.83431808      15.61307243       9.85810938      -1.95279108       0.00172409       0.00046384       0.00052283
Al       9.79732300      17.55632999       7.83346856      -1.54738020       0.00144783       0.00041385       0.00055683
Cu       7.72650242      15.61240959      11.83599669       2.94322744       0.00270682      -0.00031976       0.00006825
Au       7.79993490      17.54879443      13.62516474      -0.22441099       0.00067258      -0.00048140       0.00010307
Cu       9.67265403      15.60595174      13.75168431       3.06348304       0.00017685       0.00024135       0.00012065
Al       9.85856195      17.54382904      11.82447543      -2.05247070       0.00071776       0.00014661       0.00083608
Cu      11.71265912       0.12646691       0.04293124       2.53327016      -0.00013054       0.00088643      -0.00006940
Cu      11.76835409       1.90797237       1.91298780       2.32624683       0.00006395       0.00074006       0.00070665