399
Lattice="19.59262691714357 -0.0029401591670048664 0.00043227724696582155 -0.0029405439160256983 19.594541571232078 0.002722427805357169 0.0003459403246241731 0.002177382872289726 15.670877927394494" Properties=species:S:1:pos:R:3:energies:R:1:forces:R:3 energy=11.894842667314729 free_energy=11.894842667314729 stress="0.0004882817134773782 6.865059835049956e-06 -2.638184194429197e-05 6.865059835049956e-06 9.767787209963243e-05 -0.0001768401382247493 -2.638184194429197e-05 -0.0001768401382247493 0.0007895187298567958" pbc="T T T"
Au      -0.00860937       0.04606982       0.05693211      -1.22962038      -0.00093282      -0.00244588      -0.00112594
Cu      -0.07607386       1.90008383       1.88998835       2.71508990      -0.00011084       0.00005973       0.00092344
Cu       2.04491449      -0.04204837       1.94625171       3.19422786       0.00137779       0.00156414      -0.00061206
Al       1.97386599       1.93306926       0.10742267      -3.26743360       0.00021198       0.00102886      -0.00174519
Al      -0.07103661      -0.01991227       3.85411793      -2.46299664       0.00023538      -0.00218929      -0.00051303
Al      -0.08086818       1.97718930       5.79716578      -1.88264443       0.00010751      -0.00110111      -0.00076951
Al       1.90046564      -0.00956114       5.82754321      -2.18664029       0.00010730      -0.00052247       0.00110376
Al       1.90327975       1.88767336       3.79046104      -2.80841559      -0.00260066      -0.00032714      -0.00346883
Al      -0.07740523      -0.01906013       7.75774355      -2.47520332       0.00010305      -0.00018536      -0.00141208
Au       0.01704944       1.92662367       9.77280363      -0.04895288       0.00090645       0.00304461      -0.00031174
Cu       1.87898187      -0.10465304       9.80977219       2.18097592       0.00193575      -0.00049670       0.00047082
Au       1.94859937       1.90142570       7.86919048      -0.59298033      -0.00242640      -0.00065602       0.00263439
Cu       0.04294272      -0.10330180      11.75631833       2.01470994      -0.00071484      -0.00053079      -0.00074239
Cu      -0.00325885       1.88781969      13.78510021       2.56102966      -0.00167999       0.00004219      -0.00106320
Au       1.90953343      -0.00612333      13.67983744      -0.41434547       0.00263401       0.00300515       0.00091327
Au       1.91200738       1.87197905      11.70954772      -1.03118157       0.00239869       0.00195562       0.00186404
Cu       0.03397232       3.83322367       0.08419411       2.23019767      -0.00200290       0.00006230       0.00074545
Cu      -0.07854147       5.78060665       1.84978378       2.75255868      -0.00154783       0.00170230       0.00194228
Cu       1.88574639       3.83739956       1.93225587       2.85877890      -0.00024800       0.00023355       0.00070910
Au       1.94642503       5.76431247       0.06454202      -0.35902697      -0.00146129      -0.00131607      -0.00164088
Al      -0.05050026       3.86451518       3.79896646      -2.51551563      -0.00053628      -0.00046479      -0.00128512
Au       0.01022968       5.75946698       5.91783878       0.13960753       0.00027059       0.00039283       0.00085783
Au       2.02484980       3.77738811       5.80666918       0.33537738      -0.00194514       0.00070597       0.00091257
Al       1.91523864       5.76300909       3.82149710      -2.29121779      -0.00072816       0.00021556      -0.00008367
Cu       0.12337325       3.87090979       7.83069290       3.32814670      -0.00276102      -0.00127804      -0.00115644
Au       0.06760623       5.82258586       9.72364145       0.58875012      -0.00150542      -0.00055319      -0.00133383
Cu       1.97575720       3.82326297       9.81518357       2.85458880      -0.00077098       0.00023501       0.00108374
Al       1.98902137       5.85143037       7.83178141      -3.21871549      -0.00040434       0.00080765       0.00027375
Au       0.02314835       3.89650797      11.78989148       0.29191987      -0.00129925      -0.00204097      -0.00205410
Au      -0.01330585       5.82857461      13.84417487       0.38244064       0.00154431       0.00068692       0.00374991
Au       1.95169186       3.79073794      13.78368380       0.03609626       0.00471068      -0.00282428      -0.00076613
Al       2.00038437       5.84011940      11.83233481      -2.77526192       0.00168740      -0.00112495       0.00016021
Al       0.02064683       7.81864316       0.06152533      -2.95835340      -0.00153823      -0.00120122      -0.00074672
Au       0.05066777       9.78513084       2.05739498      -0.06769885      -0.00023993       0.00033601       0.00019804
Al       1.94523819       7.82183619       1.94286297      -2.39306716      -0.00086277       0.00144113       0.00122838
Cu       1.98043287       9.84653586       0.01801457       3.02509357       0.00026129       0.00021347       0.00084639
Al       0.06442667       7.75847226       3.95459748      -2.58666371      -0.00073609       0.00231977      -0.00072824
Al       0.05742149       9.74717920       5.93076291      -2.70552413       0.00053589      -0.00073409      -0.00028993
Cu       1.96003037       7.80082556       5.93472171       3.14585304       0.00011192      -0.00038720       0.00018311
Cu       1.92920829       9.90072164       3.93655325       3.07318459      -0.00015397       0.00039177       0.00172799
Cu       0.00603227       7.72366471       7.77313327       3.56112636       0.00102663       0.00065414      -0.00067528
Al       0.01995574       9.79290908       9.71476047      -2.23512820       0.00111520       0.00042764      -0.00060253
Al       2.02677998       7.89040409       9.79151647      -2.21480559       0.00095166      -0.00012875       0.00001813
Al       1.99816930       9.78505051       7.89848301      -2.12514580       0.00086015      -0.00037612      -0.00084170
Al       0.10466607       7.84321972      11.74714262      -2.16282495      -0.00080961      -0.00076062       0.00013522
Au       0.17792184       9.79426580      13.68840035       0.01247385      -0.00055224      -0.00063893       0.00178224
Cu       1.96858785       7.81154897      13.78579590       3.08849781      -0.00131126      -0.00265956       0.00074431
Cu       2.02407148       9.92923608      11.72447377       2.94352971       0.00047990      -0.00121209       0.00052369
Al       0.10482938      11.85677414      -0.02862480      -3.03019415       0.00014539      -0.00014148       0.00096005
Cu       0.08641300      13.79237427       2.02128891       2.85373049       0.00061900       0.00028956       0.00051019
Au       1.88760613      11.80839460       1.99815349      -1.07816676       0.00063145      -0.00012711       0.00034742
Cu       1.99162826      13.84266083      -0.06380322       2.20450004       0.00033108      -0.00145973       0.00019888
Cu       0.01875643      11.80448410       3.98243719       2.75594590       0.00046648       0.00008337       0.00198242
Au       0.02327135      13.81799595       6.07810466      -1.60203659       0.00049420      -0.00092539       0.00053340
Au       1.86429638      11.80508982       5.94727124       0.07370807       0.00015018      -0.00003206       0.00083478
Au       1.85836734      13.81546651       3.96454366      -0.40495017       0.00078500      -0.00135697       0.00033675
Cu       0.03629226      11.89553045       7.89253987       3.23901343       0.00033640      -0.00150309      -0.00054366
Au      -0.04578781      13.79228570       9.70363924      -2.03318452       0.00144220      -0.00024607       0.00051655
Au       2.02456319      11.86900330       9.81781190      -1.43428815      -0.00033209      -0.00082000      -0.00044786
Cu       1.92327855      13.82656212       7.92083829       2.64762063       0.00044319      -0.00208677      -0.00066807
Au       0.01535079      11.80022341      11.66335378      -0.45293124       0.00194869       0.00096610      -0.00144485
Au       0.04128357      13.82731886      13.59176716      -0.68096770      -0.00053552      -0.00126407      -0.00075415
Au       2.02425282      11.89759659      13.60121782      -1.27758487       0.00088796      -0.00039173       0.00100699
Cu       2.03971365      13.78822766      11.72104719       1.98406296      -0.00024824       0.00002355      -0.00060210
Au       0.07030146      15.61486331      -0.01071404      -0.53924129       0.00043298       0.00084951       0.00111031
Al      -0.00405539      17.68497902       1.98356758      -2.49267020      -0.00038986      -0.00077076       0.00218952
Cu       1.90634649      15.66608646       1.91754461       2.70548266       0.00119925      -0.00073640       0.00046153
Au       1.97628321      17.57798077       0.05093180      -1.24871008      -0.00093380       0.00061079      -0.00083850
Au       0.00615526      15.79274891       3.96879018      -0.32042535       0.00039680      -0.00186935      -0.00044341
Cu      -0.09786790      17.60208223       5.87875647       2.87083650       0.00069843      -0.00106786       0.00061149
Cu       1.85101391      15.77487831       5.99924644       2.61406126       0.00050126      -0.00171327      -0.00003935
Al       1.96699691      17.65606600       3.92806861      -2.62953160       0.00051430      -0.00210471      -0.00018780
Cu       0.01739571      15.73061834       7.91696153       2.23788535       0.00148256      -0.00068197      -0.00094169
Cu       0.00308759      17.60850108       9.83756519       2.17159674       0.00006005      -0.00111026      -0.00318302
Au       1.93658355      15.72010868       9.84884876      -2.45159811      -0.00108612      -0.00047967       0.00056968
Au       1.84579173      17.64692999       7.84744470      -1.56737725       0.00058184       0.00211801       0.00025303
Al      -0.06258381      15.71099011      11.68344214      -4.11180317       0.00074074       0.00038921      -0.00167131
Au       0.01713846      17.60024250      13.65086039      -1.37509169       0.00059642       0.00078524       0.00048867
Cu       1.98823829      15.65634343      13.65610478       1.88227374       0.00131631       0.00080359       0.00048328
Cu       1.91380142      17.63682420      11.69857318       2.00614925       0.00179332       0.00104062      -0.00161878
Au       3.86154997      -0.02930026       0.04625919      -0.00353049       0.00025084       0.00560987      -0.00519035
Cu       3.90601294       1.93626404       2.06858526       2.55621466      -0.00021454       0.00138846       0.00295627
Al       5.78834437      -0.02583806       1.98576503      -3.48218494       0.00109027       0.00177415       0.00082188
Al       5.74671099       1.95052838      -0.03572437      -2.26316328      -0.00062652      -0.00046918      -0.00199165
Au       3.92932824      -0.03212586       3.91987074      -1.44392128      -0.00179700       0.00078209      -0.00214920
Cu       3.94373267       1.85789009       5.84135986       2.67974000      -0.00108251      -0.00047420      -0.00073849
Cu       5.80936262      -0.01549234       5.79112428       1.89034397      -0.00128513       0.00078219      -0.00139022
Cu       5.80885918       1.88161299       3.95510803       1.75667588       0.00005713       0.00101236      -0.00164134
Au       3.85765472      -0.03905663       7.86593003      -0.98821809       0.00164368       0.00144227       0.00179453
Cu       3.81853888       1.92871373       9.78973992       2.87600563      -0.00068152       0.00075811      -0.00221904
Al       5.82570862       0.01432980       9.84939311      -2.96267449       0.00127637       0.00083665      -0.00091830
Au       5.87464870       1.84317973       7.75759050      -0.29259799      -0.00014200       0.00015231       0.00280229
Al       3.87210608      -0.02984410      11.67256403      -3.25728315      -0.00057029       0.00256178       0.00118955
Au       5.77437523      -0.04821351      13.63974474       0.05816679      -0.00347915       0.00618803       0.00171936
Cu       5.85525859       1.95724989      11.82433198       2.96771911      -0.00217467      -0.00087250       0.00149852
Al       3.93761706       3.84223561       0.04119411      -2.48476488      -0.00022706      -0.00250773      -0.00141452
Al       3.91476188       5.76321996       2.00909827      -2.27932005      -0.00049912       0.00043075      -0.00179405
Cu       5.77843191       3.73309211       2.10499029       2.93756464      -0.00012963       0.00215992      -0.00062900
Au       5.78754142       5.90042875      -0.05234298      -0.21563957       0.00117438      -0.00114774       0.00118044
Cu       3.89425374       3.71999842       3.87695304       2.41004025      -0.00089840       0.00377138      -0.00210236
Au       3.83132425       5.89568771       5.82824813       0.52232475       0.00008326      -0.00031690       0.00042581
Al       5.78276979       3.86677593       5.82543339      -3.01772708       0.00063284       0.00018258      -0.00089110
Al       5.80643255       5.87390470       3.90097052      -2.36230237       0.00010484       0.00112207      -0.00135454
Au       3.89618408       3.80197571       7.86648290       0.12211188       0.00068409      -0.00048347       0.00152062
Au       3.87437380       5.82706493       9.82332615       1.00829082      -0.00085232      -0.00131273       0.00077424
Al       5.85920187       3.79181687       9.82391804      -2.37231197       0.00133786       0.00124605       0.00031404
Al       5.83199351       5.87350907       7.85212776      -2.05747345      -0.00187800       0.00095122       0.00087939
Au       3.92124390       3.76766773      11.82564141      -0.56830786      -0.00363104      -0.00461569       0.00358893
Cu       3.87689266       5.89127671      13.76912795       2.79414355      -0.00105618       0.00090634      -0.00083029
Cu       5.80348856       3.94426318      13.68139686       3.11497272      -0.00100222      -0.00172045       0.00135811
Al       5.78615911       5.88723216      11.79742603      -2.61120200       0.00067257      -0.00027301       0.00007056
Au       3.83452834       7.87575809      -0.06120893      -0.79318682       0.00247094      -0.00046742       0.00061885
Cu       3.81100377       9.86431749       1.91766899       2.79621637       0.00037189       0.00011760       0.00193772
Au       5.79848703       7.90125402       1.96422924       0.53741175      -0.00086784      -0.00008696       0.00031602
Au       5.81698049       9.82854779      -0.01459351      -0.32384336      -0.00055701      -0.00134492       0.00052005
Au       3.75392993       7.96335187       3.92266736       0.48601425      -0.00031644       0.00088166       0.00006978
Al       3.83897102       9.83526425       5.93951956      -2.31004847      -0.00065998       0.00132339       0.00119275
Au       5.81069499       7.87038982       5.88191587       0.91771574      -0.00082363       0.00157338       0.00139997
Al       5.86309435       9.82775885       3.91337815      -2.71587092       0.00032068       0.00198372       0.00162956
Cu       3.90418634       7.81458780       7.82301673       3.44594787       0.00060139      -0.00178275      -0.00039018
Cu       3.90575509       9.91560349       9.98205281       2.42510777       0.00065472      -0.00051191      -0.00016302
Au       5.71249855       7.97775924       9.82657979      -0.03100789      -0.00140115      -0.00047573      -0.00039647
Al       5.77287962       9.87509463       7.91227829      -2.53799056      -0.00036883      -0.00012220      -0.00098075
Au       3.86231176       7.91707963      11.88337373      -0.67646707       0.00017976      -0.00089595       0.00112127
Al       3.86836006       9.88564246      13.67653204      -3.72514205      -0.00086100      -0.00208354       0.00131610
Cu       5.84417622       7.87856433      13.73622964       2.72203371       0.00083727      -0.00058364       0.00111549
Cu       5.79579019       9.87650521      11.74605497       2.19390945       0.00047659      -0.00064003       0.00118514
Au       3.80163764      11.84866626       0.01537333      -0.61238013       0.00011491      -0.00039705      -0.00005730
Al       3.85035918      13.85668858       1.98918728      -3.25962124       0.00109016      -0.00126912       0.00036771
Au       5.84159398      11.77625252       1.96400076       0.49452903      -0.00009939      -0.00010518       0.00092993
Au       5.76874838      13.84308020       0.00690555      -0.28636000      -0.00111798      -0.00015279      -0.00028265
Au       3.84550216      11.75560978       3.92658084       0.35543465       0.00044192      -0.00047279       0.00063099
Al       3.82976008      13.78552953       5.91292331      -2.21569811       0.00162772      -0.00282204       0.00007029
Au       5.93590453      11.83548200       5.86330818       0.75139437       0.00079362      -0.00076307       0.00090757
Au       5.91439520      13.75473547       3.90279900       0.72622484       0.00045583      -0.00130734       0.00071751
Al       3.90705635      11.85211118       7.91205500      -2.24093720       0.00073622      -0.00004416      -0.00033579
Cu       3.83570478      13.82934811       9.85507521       2.20247315       0.00106885      -0.00111417      -0.00034314
Cu       5.75446029      11.75528088       9.94123322       2.36776379      -0.00092080      -0.00144144       0.00024270
Al       5.80554933      13.76151039       7.95395991      -2.40857443       0.00001367      -0.00140893      -0.00145978
Cu       3.89554460      11.88171731      11.69198558       1.83265464      -0.00044321      -0.00138157       0.00073656
Cu       3.80005061      13.82690602      13.66876536       1.90828502       0.00009308      -0.00076940      -0.00019903
Au       5.76600276      11.92000002      13.65225260      -0.57003116       0.00023485      -0.00210831       0.00022903
Au       5.70513980      13.82446188      11.67718588      -1.70731936      -0.00087480       0.00021302       0.00114529
Cu       3.79362137      15.68558455      -0.00130631       2.12410158      -0.00080327       0.00014103       0.00037975
Cu       3.86620936      17.56272703       1.93626540       2.42459308       0.00042518       0.00031356       0.00076758
Cu       5.82578227      15.78940842       1.98110622       2.87285968      -0.00110030      -0.00015128      -0.00160702
Au       5.76486864      17.53292698       0.03560885      -0.55394502       0.00061889       0.00015403      -0.00017451
Al       3.86541055      15.78180978       3.95741230      -2.67752645      -0.00012223      -0.00175849      -0.00034219
Cu       3.91735361      17.69109375       5.93298172       2.90442515       0.00034662       0.00029507       0.00045503
Al       5.82922001      15.69581898       5.84695208      -2.31520341       0.00043577      -0.00129938       0.00049208
Cu       5.78966568      17.69595807       3.91257978       2.60462911      -0.00157278      -0.00117679       0.00023813
Au       3.82638788      15.72376749       7.87291661      -1.00369577       0.00197144       0.00013112      -0.00117955
Cu       3.82227621      17.59171371       9.82357414       2.16286789       0.00057597       0.00176822       0.00050685
Cu       5.69083452      15.76951044       9.86595720       2.23078259       0.00036736       0.00084750      -0.00044890
Au       5.80482608      17.64037777       7.85356727      -0.26589254      -0.00181639       0.00057343       0.00136205
Cu       3.79970145      15.71428546      11.69383664       1.56151338       0.00002668       0.00129685      -0.00049284
Au       3.81220163      17.52994507      13.61480936      -1.17559509      -0.00107882       0.00148893      -0.00056692
Al       5.77343395      15.63956898      13.66475420      -3.81752623      -0.00163727       0.00094546       0.00158748
Cu       5.78011285      17.52657614      11.72301163       2.49400109       0.00054873       0.00006956      -0.00012551
Au       7.80660402      -0.03349158      -0.00658357       0.17268712       0.00035979       0.00241879       0.00010699
Au       7.74457449       1.88029142       1.97501553      -0.45951148      -0.00212115      -0.00249832      -0.00533534
Cu       9.76166198       0.04754763       1.93682339       2.32368118       0.00071250      -0.00004216      -0.00129630
Cu       9.78717289       1.85440916       0.06032496       2.57768316      -0.00048897       0.00043459      -0.00016303
Cu       7.74105739       0.03378756       3.91606313       2.21438170      -0.00045684      -0.00052401      -0.00161335
Cu       7.75395224       1.87337227       5.77907121       2.51248318      -0.00069990       0.00060499      -0.00044212
Al       9.78431086      -0.04341949       5.81658468      -2.56392275      -0.00008518       0.00004501      -0.00031770
Au       9.75447396       1.87091118       3.84101759      -0.67314393       0.00289338      -0.00251496       0.00257239
Al       7.82995048      -0.05836074       7.84949966      -2.28629375      -0.00102296       0.00048591      -0.00067734
Cu       7.83960820       1.94209546       9.79998795       3.46750345       0.00089620       0.00156460       0.00120547
Al       9.79994969      -0.04893658       9.83003884      -1.75361139       0.00078386       0.00095237       0.00097759
Au       9.76594138       1.93117190       7.79955668       0.77455822       0.00094388       0.00025652      -0.00154882
Au       7.78917110       0.04584765      11.73412602       0.04747141       0.00021452       0.00232893       0.00210066
Au       7.77328725       1.99294439      13.73568415      -0.00203017      -0.00011391       0.00034461      -0.00131074
Au       9.85314143       0.03726746      13.76405990       0.10889977      -0.00156060       0.00159891       0.00000919
Au       9.84823104       2.02939979      11.76856503       0.73597530      -0.00024063      -0.00119899       0.00081917
Al       7.71455081       3.91472889       0.07112253      -2.37650784       0.00070016       0.00143952       0.00052941
Al       7.74434707       5.92318953       1.97882259      -2.51186941       0.00168550       0.00210341      -0.00052439
Al       9.75108363       3.89763007       1.90707070      -2.25562893       0.00257524       0.00225458       0.00004480
Au       9.75079040       6.07243680       0.06868735       0.64221343       0.00056500       0.00011015      -0.00021157
Au       7.72996329       3.83499967       3.91316604       0.01807460      -0.00027131       0.00251978       0.00038402
Au       7.83633178       5.96715179       5.85464792       0.33272794       0.00139243      -0.00040164      -0.00058966
Au       9.78851106       3.90315734       5.80277194      -0.29059812       0.00256272       0.00024317       0.00006899
Au       9.78000898       5.95904448       3.89874805      -0.49131524       0.00150900       0.00052046       0.00083297
Au       7.80544276       3.84511934       7.78432219       0.74290681      -0.00047318      -0.00099737       0.00024060
Al       7.79594664       5.89063842       9.78442193      -1.30256013       0.00223219       0.00072404      -0.00042493
Al       9.81897506       3.93018262       9.75931157      -2.25374361       0.00163344       0.00068485      -0.00030601
Au       9.87336358       5.94892522       7.74137459       0.62982917       0.00052185       0.00071504      -0.00010791
Al       7.77725612       3.90903860      11.74936425      -2.34626176      -0.00039663       0.00132669       0.00007496
Au       7.76236435       5.93329643      13.73512998       0.18820535      -0.00000984       0.00091630      -0.00035088
Au       9.79230926       3.92365372      13.84596019       0.53249833       0.00082866       0.00185870      -0.00017513
Au       9.82294374       5.83806422      11.77654457       1.36933357       0.00121662      -0.00001407       0.00156873
Cu       7.71560776       7.87525434      -0.02381070       2.97472689       0.00138265       0.00047267       0.00150157
Al       7.83938131       9.82611168       1.99518366      -3.22976222       0.00036382       0.00117436       0.00147523
Cu       9.78184753       7.88106695       1.99512518       2.94531393       0.00152425       0.00111985       0.00185070
Au       9.72692650       9.75378525       0.04450338      -0.83402861       0.00134198       0.00059004       0.00081647
Cu       7.87906824       7.86266458       3.95571213       3.09357860       0.00013632       0.00231370       0.00100045
Au       7.84884565       9.77543265       5.85047713       0.39956071       0.00163460      -0.00012447       0.00108441
Cu       9.83487565       7.84265483       5.80045928       2.99010251       0.00036080       0.00055663       0.00044501
Au       9.79063202       9.77724830       3.91482400      -0.87507190       0.00090078       0.00081862       0.00230299
Al       7.80951144       7.92312146       7.92236322      -1.88204919      -0.00072259       0.00068253      -0.00030390
Cu       7.72148213       9.92137729       9.91414305       3.03049465       0.00007576       0.00010824      -0.00041669
Al       9.85763705       7.88279530       9.80960307      -1.77022108       0.00067539      -0.00006477      -0.00050559
Al       9.84488099       9.75330948       7.84822087      -2.20813040      -0.00028669       0.00004320      -0.00002686
Au       7.73262481       7.93709729      11.71339223       0.13397943       0.00029382       0.00043970      -0.00020006
Au       7.73915651       9.83636810      13.69149931      -0.55320511       0.00121829      -0.00064815       0.00071376
Al       9.78261488       7.88337617      13.68511816      -2.63710924       0.00212141       0.00130460      -0.00014739
Au       9.81518054       9.90215464      11.72976398       0.53670690       0.00136567      -0.00007257      -0.00099453
Au       7.86403645      11.86234272      -0.04984186      -0.82706993      -0.00062173      -0.00025338       0.00034407
Al       7.86482805      13.72506290       1.95719439      -2.87180549      -0.00125377       0.00001606      -0.00019399
Cu       9.82703603      11.78113095       1.99176067       2.67055697      -0.00006377      -0.00032379       0.00101859
Cu       9.75712779      13.69112292      -0.06189950       2.60136133      -0.00068085      -0.00018456       0.00044527
Cu       7.87079891      11.81487810       3.94767581       3.05139669       0.00030264      -0.00109204       0.00146443
Cu       7.86378906      13.67268046       5.88554136       3.30394785      -0.00009813       0.00057425       0.00063350
Al       9.80627076      11.74001267       5.91635780      -2.72284568      -0.00073219       0.00060010       0.00113007
Au       9.81926847      13.66033338       3.91030894      -0.03709870      -0.00095111      -0.00025326       0.00074457
Au       7.77380895      11.77175545       7.95000945       0.49114218       0.00078555      -0.00083273      -0.00073112
Al       7.75681993      13.80864203       9.85456241      -2.31208692      -0.00058411      -0.00285268       0.00001083
Au       9.86068591      11.79862360       9.77002464       0.51074685       0.00116119      -0.00028360      -0.00050100
Au       9.83260563      13.78459846       7.82791100       0.47896320       0.00080804       0.00000227      -0.00083487
Al       7.78212080      11.85840312      11.77937503      -3.06870349      -0.00041139      -0.00045460      -0.00019430
Cu       7.83355549      13.77360940      13.75816425       2.51750272      -0.00258325       0.00044233      -0.00105537
Cu       9.75912897      11.74180985      13.78839109       3.06533161      -0.00044472      -0.00013250      -0.00035469
Al       9.77270176      13.73531377      11.82315892      -2.03734028      -0.00056198      -0.00017111      -0.00016708
Au       7.85386195      15.64727699       0.01364815      -0.19727840      -0.00132636      -0.00032833      -0.00033392
Au       7.79760057      17.68807734       2.07915548      -0.55935127      -0.00185839       0.00104055       0.00090888
Al       9.83857830      15.68034296       2.00364331      -2.22546995      -0.00151169      -0.00027996       0.00038364
Al       9.77418491      17.64191279       0.02568242      -2.52664402       0.00016828      -0.00098812      -0.00064333
Al       7.83154431      15.69146396       3.91690973      -2.33734463      -0.00097170      -0.00097912       0.00016686
Au       7.74571660      17.72844832       5.72637065       0.09349271      -0.00158508       0.00015983      -0.00003696
Al       9.81570173      15.73005197       5.78161490      -2.15756458      -0.00125342       0.00009572      -0.00084952
Cu       9.79010867      17.77444045       3.80787285       3.10680946      -0.00181205       0.00160204       0.00079526
Au       7.77630009      15.67502161       7.78018897       1.07383316      -0.00100333      -0.00059626       0.00118549
Au       7.73204339      17.47825653       9.93189922       0.24282135      -0.00053497       0.00049511      -0.00070743
Al       9.83445072      15.62182886       9.85508381      -1.94818041      -0.00012590      -0.00035326      -0.00044477
Al       9.79682123      17.55858656       7.83129292      -1.54595237       0.00031611      -0.00063862       0.00023530
Cu       7.72811757      15.62434081      11.83952258       2.94404260      -0.00094457       0.00046847      -0.00021210
Au       7.77077785      17.56991526      13.62666579      -0.22506421      -0.00120439       0.00097673      -0.00142788
Cu       9.66771539      15.62301572      13.75396119       3.04547310      -0.00005665      -0.00025751      -0.00100332
Al       9.84843833      17.54628333      11.82861838      -2.06776946       0.00006593      -0.00013997       0.00096037
Cu      11.71767330       0.12096407       0.04372163       2.54010501       0.00016408      -0.00027499       0.00031408
Cu      11.77306870       1.90451647       1.91336134       2.33326786       0.00005234      -0.00062148       0.00065737