399
Lattice="19.59262691714357 -0.0029401591670048664 0.00043227724696582155 -0.0029405439160256983 19.594541571232078 0.002722427805357169 0.0003459403246241731 0.002177382872289726 15.670877927394494" Properties=species:S:1:pos:R:3:energies:R:1:forces:R:3 energy=11.703066178704214 free_energy=11.703066178704214 stress="-9.162158732635093e-05 5.751016985289799e-05 0.00011039823325133691 5.751016985289799e-05 -0.00044388743176718495 -0.00014896756764825903 0.00011039823325133691 -0.00014896756764825903 0.0002671189697654437" pbc="T T T"
Au      -0.01817402       0.04271132       0.06320426      -1.22740605      -0.00064594       0.00044323       0.00047924
Cu      -0.08374265       1.89993159       1.89495044       2.72795017      -0.00053537      -0.00051558      -0.00024698
Cu       2.03376803      -0.04608505       1.95210078       3.21140034       0.00031586       0.00041287      -0.00009016
Al       1.95919153       1.93486868       0.11782657      -3.31866882      -0.00057286      -0.00072039      -0.00005491
Al      -0.07220485      -0.02224228       3.85668663      -2.46814566      -0.00049823      -0.00002106       0.00057538
Al      -0.07836277       1.97576229       5.79692450      -1.88088398      -0.00104336      -0.00063269      -0.00004699
Al       1.90307645      -0.00834316       5.82812424      -2.18572455       0.00059583       0.00034516       0.00017192
Al       1.90379350       1.88870931       3.78752652      -2.80835782       0.00023549      -0.00001332      -0.00011450
Al      -0.07860486      -0.02075826       7.75422633      -2.47829173       0.00018367       0.00017973      -0.00023602
Au       0.00223746       1.93079493       9.76002496      -0.02297902      -0.00022952      -0.00029444      -0.00051901
Cu       1.87280964      -0.11020304       9.80704287       2.18722438       0.00016119       0.00093629      -0.00058371
Au       1.95134162       1.90018281       7.87399166      -0.59171422      -0.00105518      -0.00054423      -0.00011320
Cu       0.03084415      -0.11641995      11.74626678       2.01089464      -0.00079884       0.00059434      -0.00030777
Cu       0.00476839       1.89163738      13.78616621       2.56463003      -0.00082320       0.00005065      -0.00027442
Au       1.87699695      -0.03805060      13.67424219      -0.28063658      -0.00000700       0.00095212      -0.00062251
Au       1.89567215       1.87072472      11.69268699      -0.87914116       0.00051261      -0.00003441       0.00025598
Cu       0.02510674       3.84288284       0.09267172       2.23327816      -0.00055553      -0.00025149      -0.00112551
Cu      -0.08606127       5.78781199       1.85589191       2.75975322      -0.00084118      -0.00049080      -0.00122481
Cu       1.88203285       3.84366384       1.93501791       2.87448149      -0.00090741       0.00028557      -0.00029753
Au       1.93640407       5.77819293       0.07568924      -0.35726040       0.00059708      -0.00056858       0.00022603
Al      -0.05020120       3.86400273       3.79976834      -2.52077857      -0.00104201      -0.00027004      -0.00101639
Au       0.00835573       5.75868226       5.91415790       0.14420893       0.00183376       0.00005264      -0.00169393
Au       2.02747356       3.77630994       5.80840980       0.33258192      -0.00169058      -0.00056415      -0.00063208
Al       1.91468999       5.76625807       3.82549693      -2.29296686      -0.00152351       0.00019861      -0.00086104
Cu       0.11694125       3.87034227       7.82324267       3.32436962      -0.00071991       0.00079550      -0.00184775
Au       0.06030222       5.82872291       9.71371545       0.58364231      -0.00075497       0.00045734      -0.00127192
Cu       1.96198005       3.83198254       9.79943350       2.86292880      -0.00007599       0.00043667       0.00004418
Al       1.98276035       5.85525823       7.82294494      -3.22385406      -0.00010403       0.00046101      -0.00013005
Au       0.01143060       3.90778360      11.77809371       0.30455902       0.00020133      -0.00010434      -0.00120627
Au      -0.03150831       5.85026521      13.84406300       0.38904339       0.00071889      -0.00077358      -0.00052620
Au       1.91863952       3.83553472      13.78540127       0.18260890       0.00023192      -0.00004054      -0.00001598
Al       1.98514186       5.86431649      11.81811559      -2.76303149      -0.00090069       0.00013066       0.00003121
Al       0.01347783       7.82601863       0.06468404      -2.96003136       0.00115054       0.00015906       0.00088961
Au       0.05033613       9.78985265       2.05167737      -0.05962217       0.00186643       0.00004068      -0.00133050
Al       1.94550633       7.82964929       1.94805430      -2.39939172      -0.00127122      -0.00007560      -0.00068411
Cu       1.98254513       9.84716856       0.01848441       3.02776434      -0.00117797       0.00023826       0.00200441
Al       0.06393186       7.76059542       3.95054476      -2.59320004      -0.00136571      -0.00037812       0.00032733
Al       0.05847174       9.74845933       5.92776255      -2.71450366      -0.00112912       0.00014077      -0.00294644
Cu       1.95927822       7.80440260       5.93138419       3.15013296      -0.00041713       0.00010418      -0.00082105
Cu       1.92705455       9.90263441       3.93657089       3.07655050       0.00134724       0.00005756       0.00039867
Cu       0.00519111       7.72791166       7.76741677       3.57359976       0.00049870       0.00032377      -0.00136677
Al       0.01779992       9.79869509       9.71155300      -2.23683407       0.00052908       0.00068933      -0.00106058
Al       2.01811355       7.90183104       9.78676979      -2.21461774      -0.00027558      -0.00004911       0.00005874
Al       1.99666731       9.78930777       7.89506459      -2.12816493      -0.00095532      -0.00036611      -0.00072683
Al       0.09526346       7.85204429      11.74460424      -2.16004413       0.00043575       0.00070598      -0.00031140
Au       0.17744901       9.79540793      13.69114337       0.01328881       0.00087280      -0.00021041      -0.00061163
Cu       1.96703492       7.81161346      13.78663354       3.08284015      -0.00081303      -0.00050054       0.00137290
Cu       2.02347130       9.92914600      11.72605999       2.94305668       0.00024497      -0.00043049       0.00040689
Al       0.10455476      11.85823786      -0.02893400      -3.03310717       0.00014230       0.00022103       0.00063034
Cu       0.08398319      13.78961862       2.02407029       2.85860234       0.00040594      -0.00021249      -0.00081490
Au       1.88884331      11.81006943       1.99882400      -1.08133339       0.00041578      -0.00042775      -0.00231552
Cu       1.99128414      13.84313446      -0.06258417       2.20521002       0.00100613      -0.00017178       0.00135616
Cu       0.01886317      11.80651277       3.97912279       2.75928890      -0.00056819       0.00044280       0.00103013
Au       0.02397792      13.81854279       6.07689445      -1.60844734       0.00040405       0.00097499      -0.00024961
Au       1.86367485      11.80523704       5.94640487       0.07360358       0.00012166      -0.00011274      -0.00164562
Au       1.85979621      13.81437882       3.96563973      -0.40788456      -0.00044926      -0.00044662      -0.00110197
Cu       0.03615967      11.89562883       7.89049031       3.24774644       0.00067858       0.00109495       0.00076794
Au      -0.04644997      13.79101967       9.70183099      -2.02697886       0.00016505      -0.00129138      -0.00172249
Au       2.02467037      11.86877637       9.81848504      -1.43309595      -0.00053457       0.00060549      -0.00109700
Cu       1.92348431      13.82356298       7.91923987       2.65374038      -0.00004821      -0.00082968      -0.00107430
Au       0.01629046      11.80129341      11.66427760      -0.45202864       0.00127244       0.00033572       0.00045389
Au       0.04071811      13.82706095      13.59178042      -0.68161533       0.00070094       0.00024948      -0.00014962
Au       2.02537645      11.89859041      13.60224343      -1.27824282       0.00032000       0.00016672       0.00165392
Cu       2.04054679      13.78916330      11.72096128       1.98230454       0.00085229       0.00013122       0.00085339
Au       0.06354914      15.60713749      -0.00496163      -0.53074047       0.00029756       0.00039192       0.00005794
Al      -0.00994822      17.68070439       1.98838647      -2.49517978      -0.00059074      -0.00002831      -0.00013131
Cu       1.90395201      15.66130684       1.92151196       2.71024928       0.00052483       0.00066286      -0.00011110
Au       1.96609967      17.56847645       0.05611569      -1.24324225       0.00020610       0.00023498       0.00011231
Au       0.00541044      15.79025192       3.96937448      -0.32144642      -0.00018627       0.00093503      -0.00061925
Cu      -0.09800305      17.59990547       5.87886747       2.87432763       0.00116318      -0.00005635      -0.00030397
Cu       1.85194634      15.77196053       5.99907439       2.62446993      -0.00073469      -0.00053257      -0.00018278
Al       1.96634729      17.65289225       3.93177019      -2.63720298       0.00022049      -0.00014949      -0.00038265
Cu       0.01704107      15.72940868       7.91484012       2.23853912      -0.00062207       0.00058163      -0.00159962
Cu      -0.00056013      17.60202138       9.83121503       2.16916196      -0.00003221       0.00002817      -0.00058271
Au       1.93580097      15.71633806       9.84450500      -2.46204849       0.00020258      -0.00039431       0.00151350
Au       1.84672033      17.64565686       7.84427652      -1.57476962      -0.00033385       0.00114249      -0.00037051
Al      -0.06608073      15.70490936      11.67834710      -4.11532283       0.00123496       0.00045714      -0.00014184
Au      -0.00596986      17.57899109      13.65077540      -1.36771458      -0.00046164       0.00034377      -0.00019430
Cu       1.98469346      15.65785537      13.65687876       1.87989029       0.00112055       0.00034048       0.00077000
Cu       1.90746559      17.62600841      11.69631239       2.01187109       0.00062046       0.00000505      -0.00040176
Au       3.86730975      -0.05084535       0.07845859       0.11448646      -0.00027322       0.00089067       0.00044871
Cu       3.90766153       1.93325296       2.06598364       2.58775947       0.00057283       0.00012583       0.00030824
Al       5.80364037      -0.03773005       2.00336321      -3.47832300       0.00038577      -0.00001665       0.00070275
Al       5.79340221       1.94427791       0.03557083      -2.30145710      -0.00033892       0.00080394       0.00071759
Au       3.92853721      -0.03380775       3.91766887      -1.42877809       0.00110556       0.00039032       0.00000041
Cu       3.94481843       1.85620495       5.84205456       2.67457332       0.00016036       0.00050858      -0.00017297
Cu       5.81048262      -0.01653215       5.79041667       1.87986759       0.00035552       0.00009483       0.00046623
Cu       5.81082123       1.88162841       3.95613479       1.75484572       0.00011362       0.00015332       0.00025132
Au       3.86020246      -0.04050289       7.86939905      -0.98229596       0.00109221      -0.00042328      -0.00050378
Cu       3.82707881       1.92706193       9.79809960       2.86632533      -0.00032164      -0.00038078       0.00051449
Al       5.83409268       0.00133225       9.84546666      -2.96723653      -0.00016003      -0.00001213      -0.00045196
Au       5.87485660       1.84323342       7.76031559      -0.29350029      -0.00003631       0.00029852       0.00054818
Al       3.87254922      -0.06094174      11.65488642      -3.30015086       0.00026156       0.00048627      -0.00021337
Al       3.92056057       1.90548783      13.70579214      -2.31344856      -0.00051463       0.00031937       0.00020979
Au       5.81776752      -0.09941420      13.64183406       0.26912634       0.00064439       0.00054142       0.00024836
Cu       5.86833219       1.95547415      11.77891009       3.12737119      -0.00015048      -0.00051778       0.00030719
Al       3.93951801       3.85281927       0.07547202      -2.54221136      -0.00065325      -0.00072978       0.00070453
Al       3.91460670       5.77521837       2.01965327      -2.27100585      -0.00108898      -0.00041807       0.00074905
Cu       5.78530663       3.74112188       2.12027705       2.95761523       0.00010580       0.00032428       0.00011660
Au       5.78669081       5.89945533      -0.04777005      -0.21097499       0.00022715      -0.00112483       0.00040941
Cu       3.89257905       3.72138651       3.87484678       2.40788427       0.00041594      -0.00025325       0.00121425
Au       3.83314592       5.89881441       5.82969863       0.52579524       0.00073570       0.00040220       0.00018056
Al       5.78072187       3.86669609       5.82620426      -3.01405676       0.00019015       0.00045805       0.00077373
Al       5.81154803       5.87837199       3.90834558      -2.36303568      -0.00143831       0.00089371      -0.00127018
Au       3.89594370       3.80396350       7.86979513       0.12333003      -0.00050918       0.00019270       0.00076851
Au       3.87305497       5.85968467       9.79640408       1.00062647      -0.00070469       0.00001849       0.00081144
Al       5.87406307       3.81193278       9.80204932      -2.36144401      -0.00045074      -0.00107748       0.00141546
Al       5.84010029       5.88176972       7.84425482      -2.05425612       0.00043334       0.00092686      -0.00032785
Au       3.91159120       3.82808736      11.75769368      -0.30267441      -0.00061798      -0.00015597       0.00100718
Cu       3.87213221       5.88082983      13.76896278       2.76362700       0.00053175      -0.00024354       0.00109381
Cu       5.79545422       3.95075505      13.67963492       3.27526059      -0.00025929      -0.00031826       0.00133107
Al       5.79306707       5.90010933      11.78987051      -2.60825413      -0.00190722      -0.00024577       0.00146341
Au       3.83370231       7.87285791      -0.05921851      -0.78477704      -0.00003808      -0.00111628      -0.00046731
Cu       3.81188782       9.86561300       1.92179255       2.80255075      -0.00037026      -0.00014244      -0.00074807
Au       5.80005017       7.90266002       1.96910117       0.53790451       0.00079725      -0.00140712       0.00135779
Au       5.81032352       9.82846734      -0.00708917      -0.32144110       0.00099484       0.00046114      -0.00054484
Au       3.75699507       7.96899111       3.92711062       0.48235894      -0.00111802      -0.00105659      -0.00089541
Al       3.83969528       9.83909209       5.93957130      -2.31408440      -0.00079075      -0.00025508       0.00020565
Au       5.81668882       7.87751243       5.88302868       0.91833109      -0.00018048      -0.00050572       0.00047379
Al       5.87146839       9.83091095       3.91766294      -2.71846680      -0.00049830      -0.00098470       0.00194889
Cu       3.90350231       7.82268763       7.81640906       3.45546080       0.00034036      -0.00031581       0.00118256
Cu       3.90480498       9.91630858       9.98121805       2.42900649      -0.00070012       0.00049594       0.00179571
Au       5.71815146       7.98760114       9.82378907      -0.03520273      -0.00011323      -0.00067784       0.00196457
Al       5.77268634       9.87871974       7.91070796      -2.53979290      -0.00080755       0.00150697      -0.00068354
Au       3.86287530       7.91816737      11.88195055      -0.66933751      -0.00074585       0.00094439       0.00186536
Al       3.86662322       9.88382014      13.67912393      -3.72860104       0.00013728       0.00020066       0.00108794
Cu       5.84005758       7.87542310      13.74184268       2.72897696      -0.00096895      -0.00030375       0.00049805
Cu       5.79121663       9.87954326      11.75080354       2.19624679      -0.00009425      -0.00047697       0.00045846
Au       3.80118125      11.85089421       0.01834910      -0.61144282      -0.00140367       0.00183357      -0.00047954
Al       3.85196754      13.85745155       1.99273729      -3.26197939       0.00074580      -0.00024800       0.00049683
Au       5.84257219      11.77795934       1.96742765       0.50136550      -0.00069101       0.00142795       0.00179453
Au       5.76842364      13.84767091       0.01209249      -0.28836241       0.00094793       0.00053533      -0.00059140
Au       3.84702935      11.75407825       3.92775284       0.35466954       0.00029216       0.00008199      -0.00096543
Al       3.83179934      13.78066262       5.91280212      -2.21578273       0.00069007       0.00008161       0.00102415
Au       5.93911314      11.83238732       5.86514395       0.75610285       0.00279399      -0.00220211       0.00286510
Au       5.91825405      13.75149425       3.90803927       0.72721746       0.00021267      -0.00048782       0.00031966
Al       3.90600554      11.85158338       7.91204242      -2.24466007       0.00096968       0.00129818       0.00077402
Cu       3.83596174      13.82897253       9.85306772       2.20537831       0.00021231      -0.00126083       0.00107926
Cu       5.75062653      11.75753759       9.94183982       2.36663073      -0.00186355      -0.00050254       0.00070701
Al       5.80680599      13.75741384       7.95064938      -2.41087669      -0.00033817      -0.00205756       0.00116443
Cu       3.89415408      11.88153305      11.69327393       1.83520079      -0.00000383      -0.00041266       0.00106536
Cu       3.79802502      13.83180303      13.67085310       1.90703135      -0.00002473      -0.00050598       0.00088294
Au       5.75874233      11.92448867      13.65820416      -0.56613003      -0.00024101      -0.00083785       0.00167908
Au       5.69965209      13.82819882      11.67918514      -1.71175418      -0.00062621       0.00145989       0.00038288
Cu       3.79214173      15.68563487       0.00115794       2.12825952       0.00036682       0.00113622       0.00087877
Cu       3.86604498      17.54918492       1.94443645       2.42774513       0.00046926       0.00025983       0.00005887
Cu       5.83170559      15.78229825       1.99405712       2.88811443       0.00167007       0.00084594       0.00140159
Au       5.77804276      17.51741182       0.04906133      -0.55431906       0.00077619      -0.00084269       0.00123004
Al       3.86519370      15.77775054       3.96345438      -2.68585476       0.00090303      -0.00008125       0.00079870
Cu       3.91901217      17.69115048       5.93326969       2.90361011       0.00059274       0.00070059       0.00077044
Al       5.83242202      15.69095634       5.84836549      -2.31454477       0.00103431       0.00000329       0.00032048
Cu       5.79066700      17.68922198       3.91989977       2.60503303       0.00126244       0.00034077       0.00086843
Au       3.82700803      15.72001317       7.86790135      -1.01390156       0.00151462      -0.00041212      -0.00015766
Cu       3.82326059      17.58141899       9.81363196       2.19581857       0.00076829       0.00056156       0.00019631
Cu       5.69251755      15.76416955       9.85898183       2.23654080       0.00065740       0.00052426       0.00099964
Au       5.80846158      17.63550122       7.84939825      -0.26877585      -0.00049354      -0.00048113       0.00123971
Cu       3.79852292      15.71745858      11.69301893       1.55661145       0.00004198       0.00003979       0.00163512
Au       3.81129918      17.52975111      13.62130182      -1.13805197      -0.00014984      -0.00038801      -0.00034607
Al       5.77653648      15.64164520      13.66795943      -3.81437670      -0.00035031       0.00121727       0.00150951
Cu       5.78879180      17.51107024      11.71893046       2.48806631      -0.00043452       0.00035430       0.00095645
Au       7.82314986      -0.03985440       0.00526057       0.16525010      -0.00055316       0.00059125       0.00088856
Au       7.76261999       1.87863217       1.99277944      -0.44340756      -0.00043304       0.00031127       0.00022636
Cu       9.77105888       0.04530835       1.94323434       2.33134108      -0.00010619       0.00048372       0.00087966
Cu       9.78650411       1.85576213       0.06136842       2.57930290       0.00002935      -0.00029621       0.00114544
Cu       7.74971902       0.02931670       3.92404204       2.23215832       0.00032947       0.00043719       0.00133760
Cu       7.75486636       1.87322804       5.78019021       2.51084287       0.00033847       0.00063006       0.00075283
Al       9.78754659      -0.04507734       5.81974008      -2.56613929       0.00018392       0.00032630       0.00097654
Au       9.76400158       1.87210556       3.85160492      -0.66027993       0.00124735      -0.00012926      -0.00022678
Al       7.83125976      -0.05802156       7.84727650      -2.28850790       0.00065922      -0.00022386       0.00063050
Cu       7.84192335       1.94338371       9.79522624       3.45509539      -0.00081232       0.00037679       0.00051169
Al       9.80560829      -0.04750895       9.82510647      -1.75188990       0.00027590      -0.00003017      -0.00007135
Au       9.76966069       1.93160473       7.79718738       0.77450812       0.00115986       0.00153073      -0.00016671
Au       7.80518313       0.03991885      11.72575777       0.06442702      -0.00066956      -0.00018324       0.00078083
Au       7.74809896       1.99234403      13.73320776       0.02245582      -0.00131686      -0.00097182       0.00073443
Au       9.85073621       0.04112001      13.76437265       0.10213539      -0.00052876       0.00062513      -0.00006065
Au       9.84372601       2.03191649      11.77025062       0.73193119      -0.00037554      -0.00064798       0.00079261
Al       7.71795320       3.91684682       0.07526953      -2.36877561      -0.00004014      -0.00037483       0.00067482
Al       7.74658003       5.92517202       1.98353170      -2.51647534       0.00079571      -0.00037838       0.00021167
Al       9.75544863       3.89997264       1.91174846      -2.25532355       0.00051221       0.00052087       0.00012753
Au       9.75156334       6.06976933       0.07153182       0.65023043       0.00010163      -0.00055152      -0.00096735
Au       7.73632846       3.83972327       3.92293078       0.01615645       0.00053546       0.00052428      -0.00066618
Au       7.84423787       5.97393488       5.85779301       0.32909326      -0.00068031       0.00087026      -0.00073993
Au       9.79844316       3.90940702       5.80534192      -0.28910250       0.00041522      -0.00008083       0.00096510
Au       9.78459758       5.96374894       3.90007863      -0.48888786      -0.00011329       0.00018185       0.00195459
Au       7.81108860       3.84611141       7.77659299       0.74167046       0.00035088       0.00062700      -0.00123520
Al       7.80531946       5.89833792       9.78075520      -1.30071455      -0.00095672       0.00130703      -0.00082028
Al       9.81890299       3.93052066       9.75857154      -2.25434834       0.00043186       0.00012326       0.00059705
Au       9.87913071       5.95415565       7.74583606       0.63634088       0.00029708       0.00038894       0.00029801
Al       7.77262542       3.91233218      11.74871033      -2.35069361      -0.00056847      -0.00024514       0.00220240
Au       7.76060819       5.93270034      13.73895142       0.18959044       0.00069131      -0.00075052       0.00016530
Au       9.78604156       3.91745313      13.84776340       0.52989172      -0.00000938       0.00057055       0.00030753
Au       9.82136509       5.83436021      11.78074529       1.37155184       0.00000907      -0.00106950       0.00013462
Cu       7.71394011       7.87422572      -0.01799695       2.97514262       0.00068473       0.00052564       0.00013996
Al       7.83964496       9.82882909       1.99694035      -3.22939957       0.00102048      -0.00055378       0.00033996
Cu       9.78265115       7.88222989       1.99483860       2.94584071       0.00029741       0.00082233       0.00086503
Au       9.72388935       9.75692706       0.04708827      -0.83064788      -0.00020949       0.00001256      -0.00262165
Cu       7.88360462       7.86750029       3.95914352       3.09792959      -0.00010509       0.00124905       0.00031848
Au       7.86292456       9.77742289       5.86105007       0.38419549      -0.00080955       0.00067603      -0.00067895
Cu       9.84003897       7.85024572       5.80466669       2.99253235      -0.00026020      -0.00169608       0.00082359
Au       9.79272131       9.77962447       3.91416880      -0.88672257      -0.00129253       0.00057766       0.00152921
Al       7.81834392       7.93380541       7.92601624      -1.87624335       0.00028053      -0.00224679       0.00009138
Cu       7.71089375       9.92871383       9.92352553       3.04022104       0.00006781      -0.00193919       0.00053455
Al       9.86141178       7.89012130       9.82445874      -1.40439232      -0.00107372       0.00004407       0.00004372
Al       9.87491880       9.75543158       7.88463243      -1.78967324       0.00029076      -0.00051996      -0.00003096
Au       7.73002218       7.93893618      11.72012570       0.14364215      -0.00091079      -0.00071066      -0.00225973
Au       7.72635825       9.83751993      13.70265246      -0.55263946       0.00084965       0.00187896       0.00223314
Al       9.77690613       7.88171885      13.69361092      -2.63476323       0.00036059      -0.00116768       0.00196563
Au       9.77668369       9.91285703      11.76249740       0.75809086      -0.00157995       0.00338341      -0.00342277
Au       7.85998439      11.86717562      -0.04529660      -0.82734462       0.00076357      -0.00419123      -0.00189982
Al       7.86874925      13.72297266       1.96525098      -2.87578476      -0.00008771      -0.00073638       0.00083277
Cu       9.82742390      11.78226606       1.99232361       2.67656607       0.00056146      -0.00132416       0.00045814
Cu       9.76185878      13.68771831      -0.05740035       2.60356658       0.00069584       0.00284387      -0.00001583
Cu       7.87854015      11.81236660       3.95570596       3.04992811      -0.00017669       0.00020121       0.00020247
Cu       7.87294829      13.66360785       5.89114103       3.30310924      -0.00209497       0.00076144      -0.00015888
Al       9.82244704      11.73170001       5.93119414      -2.70673004      -0.00163199      -0.00067067      -0.00196025
Au       9.82488124      13.65521866       3.91817328      -0.04605968       0.00006519      -0.00042628       0.00105256
Au       7.77743178      11.76735599       7.95225957       0.48696724      -0.00029316      -0.00131845      -0.00268315
Al       7.75310904      13.80537410       9.85363682      -2.32594471       0.00128023       0.00087524       0.00007194
Au       9.84020438      11.80147719       9.78352479       0.86144229       0.00186036      -0.00220297       0.00648837
Au       9.84342127      13.76966385       7.83698420       0.47737631       0.00070537       0.00133221      -0.00017015
Al       7.76784900      11.86916531      11.78930402      -3.07539900       0.00023249      -0.00196080      -0.00076737
Cu       7.83366548      13.77643400      13.76201804       2.52456973      -0.00038122       0.00047485      -0.00119592
Cu       9.75454401      11.74867240      13.79390286       3.06817545      -0.00179017      -0.00118702       0.00048525
Al       9.77153091      13.73413694      11.82260660      -2.04005738       0.00094193       0.00073103       0.00093342
Au       7.86497396      15.63896955       0.02009781      -0.19728077      -0.00114541      -0.00031675      -0.00039440
Au       7.80762884      17.67964195       2.08899032      -0.54901031       0.00113386      -0.00029088       0.00094177
Al       9.84552162      15.67584374       2.00928568      -2.23422141       0.00018304      -0.00038676       0.00023131
Al       9.78357387      17.63675997       0.02953881      -2.52336969      -0.00035418       0.00148226      -0.00002159
Al       7.83970087      15.68444330       3.92667491      -2.33771487       0.00098837      -0.00041686      -0.00004803
Au       7.75008858      17.72358167       5.72934040       0.09388255       0.00085774      -0.00056406       0.00172607
Al       9.82471245      15.72020993       5.79061665      -2.16746189       0.00092192      -0.00033123       0.00067578
Cu       9.79720190      17.76927610       3.81484042       3.11405556       0.00111160       0.00037000       0.00114226
Au       7.78289592      15.66601775       7.77815867       1.07130102      -0.00006690      -0.00007952       0.00153730
Au       7.73830094      17.47081578       9.92651699       0.24779765      -0.00069366       0.00063070       0.00150895
Al       9.83809588      15.61695274       9.85302371      -1.95628574      -0.00202300      -0.00150798       0.00020215
Al       9.79830299      17.55767037       7.83168845      -1.54877015       0.00036126      -0.00079024       0.00054041
Cu       7.73109747      15.61729526      11.83600400       2.95335534      -0.00025180       0.00002735      -0.00071433
Au       7.80066942      17.54834625      13.62883526      -0.22697117      -0.00063902       0.00084704       0.00036606
Cu       9.68092276      15.61300650      13.75465206       3.06426431      -0.00238806      -0.00069730      -0.00043468
Al       9.85786267      17.54311424      11.82279528      -2.06028120      -0.00048207      -0.00007155       0.00008158
Cu      11.71726252       0.12071123       0.04378238       2.53586837       0.00043406       0.00026555      -0.00057611