399
Lattice="19.59262691714357 -0.0029401591670048664 0.00043227724696582155 -0.0029405439160256983 19.594541571232078 0.002722427805357169 0.0003459403246241731 0.002177382872289726 15.670877927394494" Properties=species:S:1:pos:R:3:energies:R:1:forces:R:3 energy=11.846834226444917 free_energy=11.846834226444917 stress="-0.00011861933887692104 9.319695877661379e-05 -4.391449746822523e-05 9.319695877661379e-05 -0.00029046102577617297 -0.00010317432362163135 -4.391449746822523e-05 -0.00010317432362163135 0.0004209544752157148" pbc="T T T"
Au      -0.01923712       0.04167292       0.06304394      -1.22700962      -0.00050561      -0.00047276      -0.00081411
Cu      -0.08308473       1.89830936       1.89481846       2.72964756       0.00010683      -0.00075401       0.00058724
Cu       2.03340238      -0.04700074       1.95169079       3.20894081       0.00015131      -0.00012387       0.00028252
Al       1.95931237       1.93398703       0.11754912      -3.31914369      -0.00140821      -0.00076988      -0.00009360
Al      -0.07284590      -0.02324024       3.85683868      -2.46687342      -0.00039305      -0.00066069       0.00070044
Al      -0.07840524       1.97438741       5.79729344      -1.88012172      -0.00080812      -0.00110754       0.00079105
Al       1.90324747      -0.00876622       5.82826079      -2.18620846       0.00065864      -0.00124088      -0.00052456
Al       1.90325210       1.88777565       3.78791298      -2.80887604      -0.00018391      -0.00152215      -0.00002136
Al      -0.07815799      -0.02166878       7.75379132      -2.47809343      -0.00126283      -0.00103139       0.00044910
Au       0.00339680       1.92854492       9.75936194      -0.02249584      -0.00168514      -0.00133112       0.00073383
Cu       1.87369196      -0.11076903       9.80682720       2.18881092       0.00064554      -0.00050229       0.00052654
Au       1.95146895       1.89982433       7.87389051      -0.59114822       0.00100880      -0.00113770      -0.00006276
Cu       0.03090765      -0.11669711      11.74591011       2.00966325      -0.00019769      -0.00128604      -0.00057370
Cu       0.00585213       1.88950277      13.78508537       2.56720192      -0.00043257      -0.00057898      -0.00064278
Au       1.87740630      -0.03846833      13.67406083      -0.28209025      -0.00100280      -0.00250247       0.00046573
Au       1.89741400       1.86971512      11.69230452      -0.87830724      -0.00127789      -0.00001784      -0.00063593
Cu       0.02717953       3.84273698       0.09321122       2.23382586      -0.00070586      -0.00015555       0.00002365
Cu      -0.08480439       5.78776985       1.85943545       2.75630337       0.00216584      -0.00107860       0.00064742
Cu       1.88276865       3.84351730       1.93555156       2.87159772      -0.00086554      -0.00103505      -0.00023192
Au       1.93765010       5.77905089       0.07650562      -0.35499243      -0.00013456      -0.00254666      -0.00040465
Al      -0.04952718       3.86305260       3.80133606      -2.51928826       0.00059405      -0.00119274       0.00048763
Au       0.00946266       5.76044296       5.91740666       0.14443084      -0.00044585      -0.00177308       0.00117446
Au       2.02641399       3.77614012       5.80920251       0.33019309       0.00071407      -0.00068360       0.00118759
Al       1.91402505       5.76691690       3.82538771      -2.29477925       0.00052892      -0.00105617       0.00163594
Cu       0.11697587       3.86958689       7.82271547       3.32490999      -0.00136336      -0.00144044      -0.00054343
Au       0.05899926       5.82937596       9.71175721       0.58317077      -0.00076395      -0.00066007       0.00059859
Cu       1.96219899       3.83239823       9.79919114       2.86432301      -0.00120279      -0.00109008       0.00044516
Al       1.98294037       5.85643753       7.82547380      -3.22130341       0.00014940      -0.00060096      -0.00026043
Au       0.01444226       3.90532106      11.77628582       0.30232611      -0.00072605      -0.00243605      -0.00132536
Au      -0.02793663       5.84926722      13.84281078       0.38466724       0.00010908      -0.00140699      -0.00129958
Au       1.91978131       3.83540277      13.78545961       0.18320744       0.00020540      -0.00138129       0.00036241
Al       1.98436238       5.86521985      11.81663934      -2.76385874      -0.00006566      -0.00019591      -0.00048979
Al       0.01362069       7.82529100       0.06622534      -2.95992869       0.00224594      -0.00059255      -0.00039134
Au       0.04936565       9.78972024       2.06005225      -0.06787888       0.00258199      -0.00056203       0.00077840
Al       1.94423553       7.83063441       1.94820621      -2.40013064      -0.00040076      -0.00035815       0.00148439
Cu       1.98013942       9.84717836       0.01904785       3.02269148      -0.00010864       0.00079102       0.00047681
Al       0.06363786       7.76298539       3.95847593      -2.59920415       0.00227670       0.00119143       0.00204349
Al       0.05861157       9.75087697       5.93411267      -2.71613436      -0.00116492       0.00155118       0.00053524
Cu       1.95951702       7.80629082       5.93421420       3.15497346       0.00061119       0.00010203       0.00251465
Cu       1.92782008       9.90341086       3.93992142       3.07921227       0.00055924       0.00116343       0.00129923
Cu       0.00410873       7.72911482       7.76904410       3.57789278      -0.00052697       0.00116992       0.00029953
Al       0.01781039       9.79954024       9.70942929      -2.23840152      -0.00097385       0.00079092      -0.00050424
Al       2.01816324       7.90221691       9.78663775      -2.21531920      -0.00082358      -0.00014450      -0.00083449
Al       1.99847540       9.78945294       7.89691403      -2.12903613      -0.00041217       0.00175793       0.00007599
Al       0.09560130       7.85421966      11.74106650      -2.15805031      -0.00027317       0.00031986      -0.00092141
Au       0.17957626       9.79725199      13.68798255       0.01109462       0.00068677       0.00133555      -0.00142959
Cu       1.96646580       7.81175349      13.78691208       3.08116230       0.00019494       0.00032572      -0.00118350
Cu       2.02366546       9.92979933      11.72329333       2.94898537       0.00121626       0.00142620      -0.00093110
Al       0.10774593      11.86241188      -0.02905824      -3.03398314       0.00152238       0.00034822      -0.00053896
Cu       0.08541835      13.79108973       2.02550949       2.86190136      -0.00089990       0.00095378       0.00002768
Au       1.88837179      11.80940930       1.99898259      -1.07611770      -0.00031421       0.00163001       0.00047846
Cu       1.99263563      13.84574346      -0.06415378       2.20881469      -0.00001113       0.00138519      -0.00031233
Cu       0.01973110      11.80756153       3.98578368       2.75948426      -0.00083209       0.00034493       0.00048951
Au       0.02181075      13.81701087       6.07865520      -1.61052821      -0.00162848       0.00089928      -0.00043791
Au       1.86527250      11.80645188       5.95010782       0.06990773       0.00042567       0.00136063       0.00017855
Au       1.85919078      13.81516734       3.96712820      -0.41142278       0.00055299       0.00076734      -0.00007861
Cu       0.03522840      11.89522800       7.89138652       3.25493896      -0.00095152       0.00075869      -0.00008979
Au      -0.04684588      13.79156456       9.69928104      -2.02863086      -0.00104026       0.00305800      -0.00028849
Au       2.02566833      11.86929535       9.81719954      -1.43109403       0.00185016       0.00125713      -0.00089189
Cu       1.92426213      13.82329687       7.91890949       2.65676113       0.00000109       0.00238870       0.00108149
Au       0.01767147      11.80372168      11.66084267      -0.45177069      -0.00137849       0.00040669       0.00222875
Au       0.04291863      13.83057584      13.59077822      -0.68344115       0.00055420       0.00037031      -0.00095709
Au       2.02518711      11.89976372      13.59912313      -1.27448273      -0.00071027       0.00193894      -0.00071225
Cu       2.04167899      13.78976361      11.71969991       1.98595040      -0.00030888       0.00085517       0.00075050
Au       0.06373679      15.60848758      -0.00403991      -0.52727669      -0.00082551      -0.00032189      -0.00046067
Al      -0.01167759      17.67955730       1.98866440      -2.49470795      -0.00043958       0.00075017      -0.00055699
Cu       1.90402435      15.66328502       1.92192041       2.71343203      -0.00005347      -0.00026556       0.00033054
Au       1.96659551      17.56876525       0.05578458      -1.24531087      -0.00039989       0.00082867      -0.00058189
Au       0.00365922      15.78940047       3.97006590      -0.32220353      -0.00080717       0.00007043      -0.00010684
Cu      -0.09778507      17.59916989       5.87884438       2.87423715      -0.00053712      -0.00040438       0.00046841
Cu       1.85114399      15.77054659       5.99966677       2.62155834       0.00036905       0.00119570       0.00040156
Al       1.96573846      17.65220105       3.93176517      -2.63633588      -0.00012606      -0.00016517       0.00031163
Cu       0.01661578      15.73008585       7.91419276       2.23875180      -0.00028131       0.00112080      -0.00021260
Cu      -0.00025822      17.60238082       9.83037245       2.16858404      -0.00080799       0.00075368      -0.00065528
Au       1.93694055      15.71564785       9.84481717      -2.45820791       0.00209249       0.00194714      -0.00241154
Au       1.84762533      17.64511145       7.84423229      -1.57483932       0.00103783      -0.00181974       0.00028183
Al      -0.06581912      15.70613055      11.67661142      -4.11192601      -0.00149164       0.00035519       0.00015496
Au      -0.00643366      17.57875328      13.65067264      -1.36479882      -0.00022393       0.00136473      -0.00008783
Cu       1.98727205      15.65874068      13.65643195       1.87815746      -0.00051124       0.00093598      -0.00073526
Cu       1.90874883      17.62560661      11.69632216       2.01085913       0.00017632       0.00058950      -0.00005320
Au       3.86812992      -0.05118183       0.07823666       0.11405249       0.00079734      -0.00111173      -0.00062224
Cu       3.90632833       1.93187895       2.06574243       2.58808084      -0.00012621      -0.00088688       0.00156833
Al       5.80455034      -0.03647246       2.00331476      -3.47797659       0.00058343      -0.00117726       0.00108743
Al       5.79321449       1.94351313       0.03421667      -2.29959091      -0.00068662      -0.00115179       0.00034841
Au       3.92833177      -0.03474863       3.91752707      -1.42925927       0.00052237      -0.00075113       0.00077491
Cu       3.94372383       1.85527617       5.84303100       2.67504816       0.00025701      -0.00090593       0.00122369
Cu       5.81077503      -0.01665438       5.79104103       1.87851821       0.00100036       0.00019378       0.00068601
Cu       5.80968301       1.87934422       3.95799499       1.75750204       0.00053946       0.00037113      -0.00008337
Au       3.86042212      -0.04031396       7.87015007      -0.98374331       0.00132167       0.00060141       0.00065709
Cu       3.82802055       1.92757562       9.79866521       2.86937299      -0.00013958      -0.00124977      -0.00005081
Al       5.83578946       0.00323372       9.84680977      -2.96521174       0.00152056      -0.00028216      -0.00015866
Au       5.87568125       1.84297940       7.76221501      -0.28801395       0.00080441       0.00044708      -0.00103475
Al       3.87386639      -0.06017690      11.65484023      -3.29834306       0.00054938      -0.00087024       0.00006788
Al       3.92070702       1.90537610      13.70522893      -2.31325253      -0.00015452      -0.00074668       0.00017261
Au       5.81990934      -0.09765509      13.64120991       0.26879263      -0.00081329      -0.00082587       0.00042520
Cu       5.87136111       1.95779153      11.78064612       3.12450459      -0.00070739      -0.00097035      -0.00067889
Al       3.93979080       3.85182804       0.07519320      -2.54010126      -0.00093785       0.00022174      -0.00012331
Al       3.91539894       5.77545739       2.01792215      -2.26825653      -0.00197740      -0.00083478       0.00077866
Cu       5.78186604       3.73586123       2.12229450       2.96419280      -0.00173101      -0.00082330      -0.00123275
Au       5.78336325       5.90015300      -0.05359560      -0.21529784      -0.00147745       0.00078926      -0.00004275
Cu       3.89028557       3.72005523       3.87585640       2.40983972       0.00014636      -0.00152117       0.00046268
Au       3.82982900       5.89919865       5.83446459       0.52895065      -0.00034918      -0.00226569      -0.00092841
Al       5.77776535       3.86365372       5.82974285      -3.01358421      -0.00018291       0.00071733      -0.00059661
Al       5.80008140       5.87356971       3.91429813      -2.36689543      -0.00130772       0.00190209      -0.00010517
Au       3.89547344       3.80376337       7.87238625       0.12075450      -0.00089668      -0.00086516      -0.00062868
Au       3.87415000       5.86112333       9.79720930       1.00056167       0.00022165       0.00003795      -0.00059702
Al       5.87668073       3.81215562       9.80400855      -2.36141126       0.00010453      -0.00088007      -0.00082563
Al       5.84052104       5.87950546       7.84615825      -2.05335451       0.00019498       0.00099008       0.00059349
Au       3.91167944       3.82901309      11.75746488      -0.30578187      -0.00046452      -0.00020158      -0.00089616
Cu       3.87089075       5.88195068      13.76700583       2.76632170      -0.00097913      -0.00011093      -0.00116947
Cu       5.79516863       3.95038435      13.67694276       3.27627400      -0.00089518       0.00036520      -0.00058141
Al       5.79337956       5.90304262      11.78761831      -2.60746624       0.00010167       0.00024797      -0.00022896
Au       3.83498898       7.87532610      -0.06066043      -0.78364449      -0.00389797      -0.00072404      -0.00021299
Cu       3.81104439       9.86659763       1.91906285       2.80211233      -0.00216647       0.00028319       0.00136643
Au       5.79815059       7.90450040       1.97078046       0.51280941      -0.00310469       0.00029201      -0.00144244
Au       5.81019347       9.83209401      -0.01315026      -0.33083849       0.00049537       0.00081255      -0.00120702
Au       3.75406873       7.96802154       3.92771242       0.48576746      -0.00124402      -0.00033317      -0.00010254
Al       3.83960953       9.83973739       5.94220434      -2.31516130       0.00026161       0.00211010       0.00008806
Au       5.81168898       7.87641650       5.88522876       0.90579135      -0.00016157       0.00093031      -0.00092291
Al       5.85836573       9.83502846       3.91744361      -2.72245050      -0.00135130      -0.00127989       0.00005870
Cu       3.90567637       7.82463350       7.82120566       3.45763475      -0.00037585      -0.00027794       0.00043302
Cu       3.90745335       9.91553938       9.98132747       2.42820449       0.00031263       0.00138421      -0.00045709
Au       5.72362374       7.98870911       9.82464167      -0.03466795      -0.00008097       0.00045887       0.00026712
Al       5.77840205       9.88086641       7.91159402      -2.53775197      -0.00004398      -0.00114783      -0.00075811
Au       3.86248493       7.91946895      11.88045350      -0.67103440      -0.00056285       0.00003314      -0.00035008
Al       3.86561888       9.88516612      13.67657348      -3.72584967      -0.00099473       0.00045181      -0.00017319
Cu       5.84075981       7.88078062      13.73528547       2.72417355      -0.00168240      -0.00018916      -0.00038830
Cu       5.79745501       9.87723163      11.74869019       2.19897240      -0.00088805       0.00071721      -0.00104642
Au       3.79874195      11.85221224       0.01346009      -0.61244517       0.00065234      -0.00044328       0.00085818
Al       3.84923186      13.85954195       1.98997965      -3.26680818       0.00056196       0.00087043       0.00068919
Au       5.83311057      11.78419180       1.96333676       0.50808299      -0.00052262       0.00066284      -0.00182510
Au       5.76799276      13.84708154       0.00649472      -0.28885619      -0.00027868       0.00034903       0.00016449
Au       3.84358943      11.75740498       3.92889080       0.35863896       0.00039445       0.00136981       0.00017278
Al       3.83213757      13.78240749       5.91482927      -2.21883004       0.00125012       0.00016715      -0.00019696
Au       5.93714745      11.83662584       5.86609582       0.75814816       0.00184294      -0.00123837      -0.00062212
Au       5.91584417      13.75394129       3.90570876       0.72018891      -0.00009760       0.00021118       0.00015363
Al       3.90933101      11.85168022       7.91494382      -2.24432879       0.00072347       0.00085781       0.00008108
Cu       3.83847606      13.82822548       9.85445497       2.20524464       0.00019083       0.00183604       0.00077824
Cu       5.75889673      11.75319218       9.94397907       2.36559729      -0.00001534       0.00028566      -0.00046663
Al       5.80912153      13.75679066       7.95399075      -2.41056578       0.00220226      -0.00042883       0.00026650
Cu       3.89656198      11.88133120      11.69131412       1.83451754       0.00000519       0.00021523      -0.00112880
Cu       3.80049397      13.83044782      13.66778801       1.90664173       0.00080265       0.00114572      -0.00024892
Au       5.76397023      11.92160561      13.65177633      -0.57125709      -0.00204294      -0.00003695       0.00059574
Au       5.70653638      13.82486891      11.67716116      -1.71142214       0.00088354       0.00100935      -0.00008157
Cu       3.79404492      15.68727393      -0.00020228       2.13049073       0.00023653       0.00056704      -0.00016295
Cu       3.86737215      17.54938709       1.94380784       2.42550479       0.00074689       0.00002325       0.00025934
Cu       5.83252188      15.78127186       1.99156016       2.88648395       0.00037050       0.00052247       0.00067212
Au       5.78056925      17.51743307       0.04811082      -0.55525389      -0.00058848       0.00161001      -0.00070344
Al       3.86515466      15.77821601       3.96334472      -2.68439709       0.00094478       0.00074024      -0.00003919
Cu       3.91899882      17.69114420       5.93394300       2.90379032       0.00081635       0.00003562      -0.00012315
Al       5.83294028      15.69203787       5.84802365      -2.31677910       0.00188422       0.00040620      -0.00030550
Cu       5.79150435      17.68959934       3.91929189       2.60579837       0.00168300       0.00000393       0.00029126
Au       3.82896297      15.71960293       7.86896072      -1.00957716      -0.00110854       0.00205878       0.00216333
Cu       3.82438404      17.58128166       9.81439464       2.19435501       0.00057455      -0.00041537      -0.00002961
Cu       5.69525395      15.76393077       9.86006910       2.23334546       0.00202064       0.00027879       0.00105475
Au       5.80832482      17.63727015       7.85037378      -0.27010845       0.00323888       0.00035630      -0.00027673
Cu       3.80126930      15.71584856      11.69318985       1.55121876       0.00061859       0.00061981      -0.00103008
Au       3.81318463      17.53050349      13.62074135      -1.13951566       0.00070581       0.00075790       0.00020155
Al       5.77823393      15.64157776      13.66514650      -3.81376111       0.00113854       0.00021474      -0.00063228
Cu       5.78945099      17.51229067      11.71876376       2.49051357       0.00181738       0.00032020      -0.00010703
Au       7.82387514      -0.03816836       0.00467567       0.16693766      -0.00022057      -0.00005990       0.00025216
Au       7.76403462       1.87993664       1.99172369      -0.44302182      -0.00193399       0.00022187       0.00078845
Cu       9.77126603       0.04575551       1.94294981       2.33246905      -0.00008055       0.00166305       0.00177514
Cu       9.78785310       1.85823869       0.06299777       2.57547668      -0.00079594       0.00185964      -0.00090699
Cu       7.75286055       0.03186312       3.92338238       2.22703627       0.00033304      -0.00036095       0.00061673
Cu       7.75730860       1.87165528       5.78214440       2.51140014      -0.00081699       0.00180455      -0.00138557
Al       9.79029837      -0.04176617       5.81765223      -2.56811292       0.00009888      -0.00022317      -0.00053041
Au       9.76991996       1.87804071       3.84635742      -0.65787848      -0.00227125       0.00092066       0.00061827
Al       7.83415271      -0.05708635       7.84810169      -2.28714249       0.00099085       0.00087447      -0.00104845
Cu       7.84575234       1.94556635       9.79721307       3.45000822       0.00056965       0.00046069      -0.00216985
Al       9.80786194      -0.04490738       9.82492297      -1.75033538       0.00101753       0.00105381      -0.00090439
Au       9.77390740       1.93508224       7.79520675       0.77345001       0.00071203      -0.00003905       0.00052442
Au       7.80826780       0.04224542      11.72654701       0.06490373       0.00080999       0.00028331      -0.00111593
Au       7.75257256       1.99450661      13.73319556       0.02350922       0.00081958       0.00211231      -0.00007399
Au       9.85258719       0.04199414      13.76509812       0.10425298      -0.00003067       0.00137596       0.00120516
Au       9.84780888       2.03666912      11.77539756       0.73792526       0.00148269       0.00046222      -0.00050411
Al       7.71277048       3.91422126       0.07059138      -2.37402534       0.00249828       0.00264387       0.00044164
Al       7.71686633       5.90384538       1.99118880      -2.53145110       0.00114033       0.00146297      -0.00036912
Al       9.75214966       3.90743949       1.91052250      -2.24852056      -0.00167462      -0.00023978      -0.00411104
Au       9.70668387       6.06751564       0.07528771       0.99012170      -0.00004556      -0.00316190      -0.00233527
Au       7.73263376       3.83390961       3.92726794       0.01035760       0.00010878       0.00145785       0.00077955
Au       7.83953176       5.96889911       5.85583210       0.32830069      -0.00007235       0.00099407       0.00199785
Au       9.80233193       3.91179496       5.80001090      -0.29058828      -0.00103265       0.00054838       0.00008707
Au       9.77820585       5.96526648       3.89589142      -0.50526058      -0.00085383       0.00037870      -0.00032844
Au       7.81391227       3.84489373       7.77593617       0.73722463      -0.00042342       0.00186937       0.00024402
Al       7.80876326       5.89864001       9.78136964      -1.30019459       0.00012103      -0.00087349       0.00134732
Al       9.82138220       3.93426222       9.76281618      -2.24714262       0.00028763       0.00033735      -0.00007060
Au       9.87845257       5.95294327       7.74220062       0.63036260      -0.00141858       0.00121763      -0.00148188
Al       7.77795204       3.91638353      11.75063509      -2.34721664      -0.00020019       0.00011403       0.00052574
Au       7.75626190       5.93755630      13.73178169       0.19496633       0.00232468      -0.00241261       0.00293529
Au       9.79119166       3.92848616      13.85172553       0.52069328      -0.00087236      -0.00056990       0.00262052
Au       9.83072458       5.84423098      11.78604429       1.35038946      -0.00163274      -0.00115149      -0.00299004
Cu       7.69564124       7.87706234      -0.01446446       2.98622708      -0.00108532       0.00082508      -0.00059028
Al       7.81965566       9.84940969       2.00018473      -3.24969976       0.00196804      -0.00195526      -0.00013655
Cu       9.68247278       7.87885405       2.01634241       3.04282920      -0.00031428       0.00290179       0.00573918
Au       9.70512686       9.75575171       0.04899454      -0.50037813       0.00220979       0.00162413      -0.00036557
Cu       7.86079153       7.86552988       3.96278433       3.08881086       0.00307949      -0.00227547      -0.00060467
Au       7.85389875       9.77937793       5.84591253       0.38208465      -0.00042280       0.00126952       0.00413607
Cu       9.83305342       7.84602236       5.79888196       2.99604401       0.00314161       0.00110988      -0.00232249
Au       9.79350966       9.77142143       3.90126215      -0.89591083      -0.00058103      -0.00152832      -0.00275775
Al       7.81557873       7.92908199       7.91954111      -1.88483662      -0.00191053       0.00087196       0.00016885
Cu       7.73074693       9.92539806       9.91681274       3.03662318      -0.00114970       0.00069830       0.00053305
Al       9.86269452       7.88833745       9.81037268      -1.77439319      -0.00064709      -0.00132491      -0.00058482
Al       9.84802772       9.75476951       7.84721041      -2.21083721       0.00040885      -0.00075571      -0.00049064
Au       7.74205499       7.94268806      11.71427025       0.14237995      -0.00199549      -0.00228174       0.00019423
Au       7.73542117       9.83612194      13.69474295      -0.55059977      -0.00109377       0.00133688       0.00287188
Al       9.77911575       7.88589030      13.70241463      -2.27995065       0.00231934       0.00125532       0.00069119
Au       9.82651408       9.89988907      11.74380180       0.54107508      -0.00040559      -0.00088986       0.00136012
Au       7.86067513      11.86724643      -0.05364484      -0.82314265       0.00085436      -0.00413867       0.00032509
Al       7.86921153      13.71788393       1.96062706      -2.87346207       0.00048271      -0.00007716       0.00044833
Cu       9.82998714      11.76585981       1.98609700       2.69662178       0.00093528      -0.00000340      -0.00380996
Cu       9.76642803      13.68147045      -0.05745009       2.59900993       0.00060221      -0.00102827      -0.00116501
Cu       7.87232481      11.81615511       3.95162412       3.06710929      -0.00000831      -0.00075311      -0.00243395
Cu       7.87145237      13.66672569       5.88448243       3.30436566      -0.00139347       0.00063217      -0.00022896
Al       9.81531594      11.73351169       5.90673694      -2.72370215      -0.00016584      -0.00035136       0.00127508
Au       9.82953693      13.64996187       3.90383168      -0.03477273      -0.00299579      -0.00134865       0.00100316
Au       7.78197417      11.76984946       7.94747343       0.49310683       0.00210937      -0.00010719       0.00074422
Al       7.76058885      13.80082123       9.85447909      -2.31783474       0.00082094      -0.00123701       0.00059739
Au       9.86443458      11.79296401       9.77640825       0.49717483       0.00015214      -0.00123825       0.00018037
Au       9.83662262      13.77677370       7.82679057       0.47131789       0.00086017       0.00047218       0.00108401
Al       7.78695402      11.85681957      11.78561506      -3.06829594      -0.00099934      -0.00046321      -0.00001788
Cu       7.83733691      13.77406701      13.75683030       2.52560647       0.00032652       0.00083386      -0.00212876
Cu       9.76850560      11.73009415      13.79424299       3.07599411      -0.00093392       0.00057064       0.00308733
Al       9.77942026      13.72891502      11.82472526      -2.04112275      -0.00051965      -0.00041818      -0.00042620
Au       7.86599233      15.63614089       0.01794258      -0.19302900      -0.00058727      -0.00031026      -0.00022786
Au       7.80758258      17.68040867       2.08820089      -0.54713863       0.00134375      -0.00001748       0.00008785
Al       9.84477277      15.67590354       2.00601489      -2.22941440      -0.00094782      -0.00142709      -0.00043615
Al       9.78201863      17.63782880       0.02888835      -2.52272754       0.00128999      -0.00085669       0.00017171
Al       7.84001993      15.68289200       3.92213030      -2.33863123      -0.00030329       0.00068377       0.00034318
Au       7.75079272      17.72488695       5.72807144       0.09035835       0.00127040      -0.00011273       0.00043043
Al       9.82184632      15.72114502       5.78236928      -2.16533010       0.00145878       0.00035701       0.00023017
Cu       9.79724498      17.76955441       3.81402302       3.11437031       0.00133812       0.00012404      -0.00105334
Au       7.78022946      15.66841915       7.77895369       1.07063569       0.00132418       0.00024094       0.00105116
Au       7.73930347      17.47292471       9.92718270       0.24640535       0.00226220      -0.00028146       0.00078594
Al       9.83889329      15.61557048       9.85311663      -1.95613221       0.00097373      -0.00034144       0.00017524
Al       9.79913337      17.55627469       7.82943178      -1.54744336       0.00137725       0.00092450       0.00020874
Cu       7.73444966      15.61674298      11.83431488       2.94903227       0.00114009       0.00010071      -0.00021604
Au       7.80119581      17.54860557      13.62776728      -0.22606026       0.00117553       0.00029130       0.00023612
Cu       9.68120139      15.61312426      13.75456003       3.06668424      -0.00054113      -0.00090312      -0.00084199
Al       9.85867953      17.54414386      11.82195000      -2.05938878       0.00055048       0.00071857       0.00007751
Cu      11.71760736       0.12187247       0.04530412       2.53830857      -0.00093595       0.00335282      -0.00008376